ID,Name,InChI,InChIKey,SMILES,Solubility,SD,Ocurrences,Group,MolWt,MolLogP,MolMR,HeavyAtomCount,NumHAcceptors,NumHDonors,NumHeteroatoms,NumRotatableBonds,NumValenceElectrons,NumAromaticRings,NumSaturatedRings,NumAliphaticRings,RingCount,TPSA,LabuteASA,BalabanJ,BertzCT
A-2548,2-benzoyl-5-(octyloxy)phenol,"InChI=1S/C21H26O3/c1-2-3-4-5-6-10-15-24-18-13-14-19(20(22)16-18)21(23)17-11-8-7-9-12-17/h7-9,11-14,16,22H,2-6,10,15H2,1H3",QUAMTGJKVDWJEQ-UHFFFAOYSA-N,CCCCCCCCOc1ccc(c(O)c1)C(=O)c2ccccc2,-5.5137980476,1.5,2,G2,326.43600000000004,5.362500000000006,96.85230000000004,24.0,3.0,1.0,3.0,10.0,128.0,2.0,0.0,0.0,2.0,46.53,143.84227743687714,1.847847451861207,634.7870461945519
A-2549,2-butyloctan-1-ol,"InChI=1S/C12H26O/c1-3-5-7-8-10-12(11-13)9-6-4-2/h12-13H,3-11H2,1-2H3",XMVBHZBLHNOQON-UHFFFAOYSA-N,CCCCCCC(CO)CCCC,-5.2703037605,0.0,1,G1,186.33899999999997,3.755500000000003,58.85980000000006,13.0,1.0,1.0,1.0,9.0,80.0,0.0,0.0,0.0,0.0,20.23,83.54784803838825,3.2537028970466646,91.12526634448808
A-2550,2-decyltetradecan-1-ol,"InChI=1S/C24H50O/c1-3-5-7-9-11-13-14-16-18-20-22-24(23-25)21-19-17-15-12-10-8-6-4-2/h24-25H,3-23H2,1-2H3",CAYHVMBQBLYQMT-UHFFFAOYSA-N,CCCCCCCCCCCCC(CO)CCCCCCCCCC,-5.549815883300001,0.0,1,G1,354.6630000000002,8.436700000000007,114.2638000000001,25.0,1.0,1.0,1.0,21.0,152.0,0.0,0.0,0.0,0.0,20.23,159.9271534111476,3.2764077513258156,226.1355047616759
A-2551,2-dodecylhexadecan-1-ol,"InChI=1S/C28H58O/c1-3-5-7-9-11-13-15-16-18-20-22-24-26-28(27-29)25-23-21-19-17-14-12-10-8-6-4-2/h28-29H,3-27H2,1-2H3",DEMBLPGWNXUBIQ-UHFFFAOYSA-N,CCCCCCCCCCCCCCC(CO)CCCCCCCCCCCC,-5.6135997753,0.0,1,G1,410.77100000000036,9.997099999999996,132.73180000000005,29.0,1.0,1.0,1.0,25.0,176.0,0.0,0.0,0.0,0.0,20.23,185.38692186873405,3.2669260255317036,275.4873866763125
A-2552,2-ethyl-1-{[(2-ethylhexyl)oxy]methoxy}hexane,"InChI=1S/C17H36O2/c1-5-9-11-16(7-3)13-18-15-19-14-17(8-4)12-10-6-2/h16-17H,5-15H2,1-4H3",QPIWJVQXEMCELO-UHFFFAOYSA-N,CCCCC(CC)COCOCC(CC)CCCC,-5.4353234735000004,0.0,1,G1,272.47299999999996,5.409900000000006,83.38300000000008,19.0,2.0,0.0,2.0,14.0,116.0,0.0,0.0,0.0,0.0,18.46,120.80541531718903,3.497669211486053,152.64499996502863
A-2553,2-hexyldecan-1-ol,"InChI=1S/C16H34O/c1-3-5-7-9-10-12-14-16(15-17)13-11-8-6-4-2/h16-17H,3-15H2,1-2H3",XULHFMYCBKQGEE-UHFFFAOYSA-N,CCCCCCCCC(CO)CCCCCC,-5.3846168146,0.0,1,G1,242.44699999999992,5.315900000000005,77.32780000000007,17.0,1.0,1.0,1.0,13.0,104.0,0.0,0.0,0.0,0.0,20.23,109.0076164959747,3.2841558880602304,133.48686830125578
A-2554,"2-tert-butyl-6-(5-chloro-2H-1,2,3-benzotriazol-2-yl)-4-methylphenol","InChI=1S/C17H18ClN3O/c1-10-7-12(17(2,3)4)16(22)15(8-10)21-19-13-6-5-11(18)9-14(13)20-21/h5-9,22H,1-4H3",OCWYEMOEOGEQAN-UHFFFAOYSA-N,Cc1cc(n2nc3ccc(Cl)cc3n2)c(O)c(c1)C(C)(C)C,-5.4994176265,1.19897000435,2,G2,315.8040000000001,4.3854200000000025,88.97680000000004,22.0,4.0,1.0,5.0,1.0,114.0,3.0,0.0,0.0,3.0,50.94,133.88770741466902,2.2358728674958837,862.2019333664629
A-2555,2-tert-butyl-6-[(3-tert-butyl-5-ethyl-2-hydroxyphenyl)methyl]-4-ethylphenol,"InChI=1S/C25H36O2/c1-9-16-11-18(22(26)20(13-16)24(3,4)5)15-19-12-17(10-2)14-21(23(19)27)25(6,7)8/h11-14,26-27H,9-10,15H2,1-8H3",GPNYZBKIGXGYNU-UHFFFAOYSA-N,CCc1cc(Cc2cc(CC)cc(c2O)C(C)(C)C)c(O)c(c1)C(C)(C)C,-5.5665093776,1.5665610928500002,2,G2,368.5610000000001,6.408400000000008,115.17560000000006,27.0,2.0,2.0,2.0,4.0,148.0,2.0,0.0,0.0,2.0,40.46,164.82121231710894,2.6350121189534077,748.1833421841261
A-2556,2-tetradecyloctadecan-1-ol,"InChI=1S/C32H66O/c1-3-5-7-9-11-13-15-17-18-20-22-24-26-28-30-32(31-33)29-27-25-23-21-19-16-14-12-10-8-6-4-2/h32-33H,3-31H2,1-2H3",RTXVDAJGIYOHFY-UHFFFAOYSA-N,CCCCCCCCCCCCCCCCC(CO)CCCCCCCCCCCCCC,-5.66920434,0.0,1,G1,466.8790000000005,11.557499999999985,151.19979999999984,33.0,1.0,1.0,1.0,29.0,200.0,0.0,0.0,0.0,0.0,20.23,210.8466903263205,3.257673259986062,326.4650059388288
A-2559,3-octadecyl-1-{3-[(octadecylcarbamoyl)amino]propyl}urea,"InChI=1S/C41H84N4O2/c1-3-5-7-9-11-13-15-17-19-21-23-25-27-29-31-33-36-42-40(46)44-38-35-39-45-41(47)43-37-34-32-30-28-26-24-22-20-18-16-14-12-10-8-6-4-2/h3-39H2,1-2H3,(H2,42,44,46)(H2,43,45,47)",UZXKVMHAGOJYHP-UHFFFAOYSA-N,CCCCCCCCCCCCCCCCCCNC(=O)NCCCNC(=O)NCCCCCCCCCCCCCCCCCC,-5.8229189425,0.0,1,G1,665.1489999999997,12.497899999999984,206.51179999999923,47.0,2.0,4.0,6.0,38.0,280.0,0.0,0.0,0.0,0.0,82.26,293.85942853821354,3.2446836972250335,578.5656120232067
A-2561,4-amino-N-(2-ethylhexyl)benzene-1-sulfonamide,"InChI=1S/C14H24N2O2S/c1-3-5-6-12(4-2)11-16-19(17,18)14-9-7-13(15)8-10-14/h7-10,12,16H,3-6,11,15H2,1-2H3",HHEXVLXMZIVFSS-UHFFFAOYSA-N,CCCCC(CC)CN[S](=O)(=O)c1ccc(N)cc1,-5.453967766799999,0.0,1,G1,284.425,2.7635000000000005,79.34890000000004,19.0,3.0,2.0,5.0,8.0,108.0,1.0,0.0,0.0,1.0,72.19,116.00146880770568,2.6136360098361164,468.72426089919077
A-2563,"5-tert-butyl-2-[5-(5-tert-butyl-1,3-benzoxazol-2-yl)thiophen-2-yl]-1,3-benzoxazole","InChI=1S/C26H26N2O2S/c1-25(2,3)15-7-9-19-17(13-15)27-23(29-19)21-11-12-22(31-21)24-28-18-14-16(26(4,5)6)8-10-20(18)30-24/h7-14H,1-6H3",AIXZBGVLNVRQSS-UHFFFAOYSA-N,CC(C)(C)c1ccc2oc(nc2c1)c3sc(cc3)c4oc5ccc(cc5n4)C(C)(C)C,-5.6340467929999996,1.0,2,G2,430.5730000000002,7.959500000000005,127.72500000000005,31.0,5.0,0.0,5.0,2.0,158.0,5.0,0.0,0.0,5.0,52.06,185.49677527072652,1.4965106811951068,1300.5005950059533
A-2564,6-[3-(decanoyloxy)-2-[(heptanoyloxy)methyl]-2-[(octanoyloxy)methyl]propoxy]-6-oxohexanoic acid,"InChI=1S/C10H20O2.C8H16O2.C6H10O4.C6H14O3.C6H12O2/c1-2-3-4-5-6-7-8-9-10(11)12;1-2-3-4-5-6-7-8(9)10;7-5(8)3-1-2-4-6(9)10;1-2-6(3-7,4-8)5-9;1-2-3-4-5-6(7)8/h2-9H2,1H3,(H,11,12);2-7H2,1H3,(H,9,10);1-4H2,(H,7,8)(H,9,10);7-9H,2-5H2,1H3;2-5H2,1H3,(H,7,8)",YCGWUEYSZNACHN-UHFFFAOYSA-N,CCCCCCCCCC(O)=O.CCCCCCCC(O)=O.CCCCCC(O)=O.CCC(CO)(CO)CO.OC(=O)CCCCC(O)=O,-5.8530645557000005,0.0,1,G1,712.9590000000003,7.3702000000000085,190.7563999999996,49.0,8.0,8.0,13.0,27.0,294.0,0.0,0.0,0.0,0.0,247.18999999999994,294.69703016361467,-1.6566989379377404e-07,719.7083334575333
A-2565,Pigment Red 224,InChI=1S/C24H8O6/c25-21-13-5-1-9-10-2-6-15-20-16(24(28)30-23(15)27)8-4-12(18(10)20)11-3-7-14(22(26)29-21)19(13)17(9)11/h1-8H,CLYVDMAATCIVBF-UHFFFAOYSA-N,O=C1OC(=O)c2ccc3c4ccc5C(=O)OC(=O)c6ccc(c7ccc1c2c37)c4c56,-5.5936426625,0.0,1,G1,392.3220000000002,3.546000000000002,114.64800000000002,30.0,6.0,0.0,6.0,0.0,140.0,7.0,0.0,0.0,7.0,94.56,163.73516211837247,1.9470579005489246,1791.0455870557253
A-2566,"O,O,O-tris(4-nitrophenyl) thiophosphate","InChI=1S/C18H12N3O9PS/c22-19(23)13-1-7-16(8-2-13)28-31(32,29-17-9-3-14(4-10-17)20(24)25)30-18-11-5-15(6-12-18)21(26)27/h1-12H",DMRUHNJUTAJPSU-UHFFFAOYSA-N,[O-][N+](=O)c1ccc(O[P](=S)(Oc2ccc(cc2)[N+]([O-])=O)Oc3ccc(cc3)[N+]([O-])=O)cc1,-5.6788341975,0.0,1,G1,477.3470000000002,5.172500000000003,115.4582,32.0,10.0,0.0,14.0,9.0,164.0,3.0,0.0,0.0,3.0,157.11,184.225082490858,1.8896076724364455,1050.9072421635276
A-2567,barium(2+) ion 4-[(E)-2-(5-chloro-4-methyl-2-sulfonatophenyl)diazen-1-yl]-3-hydroxynaphthalene-2-carboxylate,"InChI=1S/C18H13ClN2O6S.Ba/c1-9-6-15(28(25,26)27)14(8-13(9)19)20-21-16-11-5-3-2-4-10(11)7-12(17(16)22)18(23)24;/h2-8,20H,1H3,(H,23,24)(H,25,26,27);/q;+2/p-2/b21-16+;",TTXAKIMEQNUACJ-JEBHESKQSA-L,[Ba++].Cc1cc(c(N\N=C/2C(=O)C(=Cc3ccccc23)C([O-])=O)cc1Cl)[S]([O-])(=O)=O,-5.745185694400001,0.80102999565,2,G2,556.1420000000003,0.7039199999999999,104.4989,29.0,8.0,1.0,11.0,4.0,144.0,2.0,0.0,1.0,3.0,138.79,211.02335726345908,2.9999967513369343e-06,1190.8326565222305
A-2568,barium(2+) ion bis(2-[(E)-2-(2-hydroxynaphthalen-1-yl)diazen-1-yl]naphthalene-1-sulfonate),"InChI=1S/2C20H14N2O4S.Ba/c2*23-18-12-10-13-5-1-3-7-15(13)19(18)22-21-17-11-9-14-6-2-4-8-16(14)20(17)27(24,25)26;/h2*1-12,21H,(H,24,25,26);/q;;+2/p-2/b2*22-19-;",MMXGUEISHWEPDM-JBLAVHSWSA-L,[Ba++].[O-][S](=O)(=O)c1c(N\N=C\2C(=O)C=Cc3ccccc23)ccc4ccccc14.[O-][S](=O)(=O)c5c(N\N=C\6C(=O)C=Cc7ccccc67)ccc8ccccc58,-5.9504281438,0.7596752758188374,3,G4,892.13,5.931200000000005,210.86179999999965,55.0,12.0,2.0,15.0,6.0,268.0,6.0,0.0,2.0,8.0,197.32,355.4876126563324,1.8367346282142877e-07,2691.613539754247
A-2569,bis(11-methyldodecyl) phthalate,"InChI=1S/C34H58O4/c1-29(2)23-17-13-9-5-7-11-15-21-27-37-33(35)31-25-19-20-26-32(31)34(36)38-28-22-16-12-8-6-10-14-18-24-30(3)4/h19-20,25-26,29-30H,5-18,21-24,27-28H2,1-4H3",BCSGAWBQJHXXSE-UHFFFAOYSA-N,CC(C)CCCCCCCCCCOC(=O)c1ccccc1C(=O)OCCCCCCCCCCC(C)C,-5.724958731699999,0.0,1,G1,530.8340000000004,10.333999999999994,159.7889999999997,38.0,4.0,0.0,4.0,24.0,218.0,1.0,0.0,0.0,1.0,52.60000000000001,234.1999169817034,2.1343696311526954,663.9509338586317
A-2570,calcium bis[2-[(2-hydroxynaphthyl)azo]naphthalenesulphonate],"InChI=1S/2C20H14N2O4S.Ca/c2*23-18-12-10-13-5-1-3-7-15(13)19(18)22-21-17-11-9-14-6-2-4-8-16(14)20(17)27(24,25)26;/h2*1-12,21H,(H,24,25,26);/q;;+2/p-2/b2*22-19-;",AKLXUSFMCRHRNU-JBLAVHSWSA-L,[Ca++].[O-][S](=O)(=O)c1c(N\N=C\2C(=O)C=Cc3ccccc23)ccc4ccccc14.[O-][S](=O)(=O)c5c(N\N=C\6C(=O)C=Cc7ccccc67)ccc8ccccc58,-5.9003015698,0.0,1,G1,794.88,5.931200000000005,210.86179999999965,55.0,12.0,2.0,15.0,6.0,268.0,6.0,0.0,2.0,8.0,197.32,345.0272400932337,1.8367346282142877e-07,2691.613539754247
A-2571,diindium trioxide,InChI=1S/2In.3O/q2*+3;3*-2,PJXISJQVUVHSOJ-UHFFFAOYSA-N,[O--].[O--].[O--].[In+3].[In+3],-5.443471085900001,0.0,1,G1,277.633,-1.118,13.567499999999999,5.0,0.0,0.0,5.0,0.0,24.0,0.0,0.0,0.0,0.0,85.5,67.62694762037896,-0.0,4.854752972273344
A-2572,diisotridecyl adipate,"InChI=1S/C32H62O4/c1-29(2)23-17-13-9-5-7-11-15-21-27-35-31(33)25-19-20-26-32(34)36-28-22-16-12-8-6-10-14-18-24-30(3)4/h29-30H,5-28H2,1-4H3",WPUKZOKYKHYASK-UHFFFAOYSA-N,CC(C)CCCCCCCCCCOC(=O)CCCCC(=O)OCCCCCCCCCCC(C)C,-5.708288296799999,1.5775447143124521,5,G4,510.84400000000056,9.966999999999999,153.16799999999978,36.0,4.0,0.0,4.0,27.0,214.0,0.0,0.0,0.0,0.0,52.60000000000001,224.6025912332258,3.2991587595383853,442.54728249200537
A-2573,docosan-1-ol,"InChI=1S/C22H46O/c1-2-3-4-5-6-7-8-9-10-11-12-13-14-15-16-17-18-19-20-21-22-23/h23H,2-22H2,1H3",NOPFSRXAKWQILS-UHFFFAOYSA-N,CCCCCCCCCCCCCCCCCCCCCCO,-5.5140281478999995,0.0,1,G1,326.60900000000004,7.800600000000008,105.09980000000009,23.0,1.0,1.0,1.0,20.0,140.0,0.0,0.0,0.0,0.0,20.23,147.19726918235438,2.9219621943934726,170.4117611359987
A-2574,dodecyl 3-{[3-(dodecyloxy)-3-oxopropyl]sulfanyl}propanoate,"InChI=1S/C30H58O4S/c1-3-5-7-9-11-13-15-17-19-21-25-33-29(31)23-27-35-28-24-30(32)34-26-22-20-18-16-14-12-10-8-6-4-2/h3-28H2,1-2H3",GHKOFFNLGXMVNJ-UHFFFAOYSA-N,CCCCCCCCCCCCOC(=O)CCSCCC(=O)OCCCCCCCCCCCC,-5.711686621799999,0.0,1,G1,514.8570000000005,9.428,152.16499999999982,35.0,5.0,0.0,5.0,28.0,208.0,0.0,0.0,0.0,0.0,52.60000000000001,221.9958170297978,3.2715698565258533,415.6374521035011
A-2575,ethyl 4-[[(methylphenylamino)methylene]amino]benzoate,"InChI=1S/C17H18N2O2/c1-3-21-17(20)14-9-11-15(12-10-14)18-13-19(2)16-7-5-4-6-8-16/h4-13H,3H2,1-2H3",GNGYPJUKIKDJQT-UHFFFAOYSA-N,CCOC(=O)c1ccc(cc1)N=CN(C)c2ccccc2,-5.4507770249,0.0,1,G1,282.343,3.659500000000002,85.39550000000004,21.0,3.0,0.0,4.0,5.0,108.0,2.0,0.0,0.0,2.0,41.9,124.24343138315818,2.0288891184620623,606.4470515313365
A-2577,hexadecyl hexadecyloxy dicarbonate,"InChI=1S/C34H66O6/c1-3-5-7-9-11-13-15-17-19-21-23-25-27-29-31-37-33(35)39-40-34(36)38-32-30-28-26-24-22-20-18-16-14-12-10-8-6-4-2/h3-32H2,1-2H3",QWVBGCWRHHXMRM-UHFFFAOYSA-N,CCCCCCCCCCCCCCCCOC(=O)OOC(=O)OCCCCCCCCCCCCCCCC,-5.7565570001,0.0,1,G1,570.8960000000003,12.170399999999983,165.48999999999964,40.0,6.0,0.0,6.0,30.0,238.0,0.0,0.0,0.0,0.0,71.06,247.48886123677107,3.268382566197526,478.5613121459012
A-2578,hexadecyl(trimethoxy)silane,"InChI=1S/C19H42O3Si/c1-5-6-7-8-9-10-11-12-13-14-15-16-17-18-19-23(20-2,21-3)22-4/h5-19H2,1-4H3",RSKGMYDENCAJEN-UHFFFAOYSA-N,CCCCCCCCCCCCCCCC[Si](OC)(OC)OC,-5.5398636413,0.0,1,G1,346.62800000000004,6.345800000000007,101.90000000000009,23.0,3.0,0.0,4.0,18.0,140.0,0.0,0.0,0.0,0.0,27.69,146.39981760759105,3.245766365051746,224.3899522598448
A-2579,hexanal; pentanal; propanedial,"InChI=1S/C6H12O.C5H10O.C3H4O2/c1-2-3-4-5-6-7;1-2-3-4-5-6;4-2-1-3-5/h6H,2-5H2,1H3;5H,2-4H2,1H3;2-3H,1H2",BJBMXVQYJNODIZ-UHFFFAOYSA-N,CCCCCC=O.CCCCC=O.O=CCC=O,-5.4122219139,0.0,1,G1,258.35799999999995,2.9154000000000018,72.54000000000005,18.0,4.0,0.0,4.0,9.0,106.0,0.0,0.0,0.0,0.0,68.28,110.14124922221899,-1.9047202614270083e-07,172.63280491264965
A-2580,hydrate iron potassium,InChI=1S/Fe.K.2O/q+3;+1;2*-2,UMPKMCDVBZFQOK-UHFFFAOYSA-N,[O--].[O--].[K+].[Fe+3],-5.1036019152,0.0,1,G1,126.941,-3.2361,1.373,4.0,0.0,0.0,4.0,0.0,21.0,0.0,0.0,0.0,0.0,57.0,77.8481695843158,-0.0,6.0
A-2581,hydrate lithium potassium titanium,InChI=1S/K.Li.H2O.Ti/h;;1H2;,UFWQXTAKIFGGMA-UHFFFAOYSA-N,[Li].O.[K].[Ti],-5.0489115819,0.0,1,G1,111.92099999999999,-1.5888,15.121799999999999,4.0,0.0,0.0,4.0,0.0,14.0,0.0,0.0,0.0,0.0,31.5,95.0754950241351,-0.0,8.0
A-2582,icosan-1-ol,"InChI=1S/C20H42O/c1-2-3-4-5-6-7-8-9-10-11-12-13-14-15-16-17-18-19-20-21/h21H,2-20H2,1H3",BTFJIXJJCSYFAL-UHFFFAOYSA-N,CCCCCCCCCCCCCCCCCCCCO,-5.4750243489,0.0,1,G1,298.55499999999995,7.020400000000008,95.86580000000008,21.0,1.0,1.0,1.0,18.0,128.0,0.0,0.0,0.0,0.0,20.23,134.46738495356115,2.901443984538413,149.221349491463
A-2583,manganese(3+) ion ammonium (phosphonatooxy)phosphonate,"InChI=1S/Mn.H3N.H4O7P2/c;;1-8(2,3)7-9(4,5)6/h;1H3;(H2,1,2,3)(H2,4,5,6)/q+3;;/p-3",UHHXUPJJDHEMGX-UHFFFAOYSA-K,[NH4+].[Mn+3].[O-][P]([O-])(=O)O[P]([O-])([O-])=O,-5.392552750599999,0.0,1,G1,246.91799999999998,-2.9659,22.282800000000005,11.0,7.0,1.0,11.0,2.0,68.0,0.0,0.0,0.0,0.0,172.10999999999999,72.49538113684142,-3.1999997430000204e-07,156.87959510731497
A-2584,octadecan-1-ol,"InChI=1S/C18H38O/c1-2-3-4-5-6-7-8-9-10-11-12-13-14-15-16-17-18-19/h19H,2-18H2,1H3",GLDOVTGHNKAZLK-UHFFFAOYSA-N,CCCCCCCCCCCCCCCCCCO,-5.432168875,1.4793036574,2,G2,270.50099999999986,6.240200000000008,86.63180000000007,19.0,1.0,1.0,1.0,16.0,116.0,0.0,0.0,0.0,0.0,20.23,121.73750072476794,2.8766966445353965,128.62570933197804
A-2586,propan-2-yl dodecanoate,"InChI=1S/C15H30O2/c1-4-5-6-7-8-9-10-11-12-13-15(16)17-14(2)3/h14H,4-13H2,1-3H3",UJPPXNXOEVDSRW-UHFFFAOYSA-N,CCCCCCCCCCCC(=O)OC(C)C,-5.384537990399999,0.0,1,G1,242.40299999999996,4.858900000000005,73.07200000000006,17.0,2.0,0.0,2.0,11.0,102.0,0.0,0.0,0.0,0.0,26.3,107.12350795893272,3.10164393503676,175.7606331626225
A-2587,tetracosan-1-ol,"InChI=1S/C24H50O/c1-2-3-4-5-6-7-8-9-10-11-12-13-14-15-16-17-18-19-20-21-22-23-24-25/h25H,2-24H2,1H3",TYWMIZZBOVGFOV-UHFFFAOYSA-N,CCCCCCCCCCCCCCCCCCCCCCCCO,-5.549815883300001,0.0,1,G1,354.6630000000001,8.580800000000004,114.3338000000001,25.0,1.0,1.0,1.0,22.0,152.0,0.0,0.0,0.0,0.0,20.23,159.9271534111476,2.939250071405689,192.141154705683
A-2589,undec-3-ene,"InChI=1S/C11H22/c1-3-5-7-9-11-10-8-6-4-2/h5,7H,3-4,6,8-11H2,1-2H3/b7-5+",SDTYFWAQLSIEBH-FNORWQNLSA-N,CCCCCCC\C=C\CC,-5.1883574821,0.03959062300000005,2,G3,154.29699999999997,4.313100000000004,52.80700000000004,11.0,0.0,0.0,0.0,7.0,66.0,0.0,0.0,0.0,0.0,0.0,71.69906913961137,2.8452531812362967,82.03910001730776
A-2590,vinyl laurate,"InChI=1S/C14H26O2/c1-3-5-6-7-8-9-10-11-12-13-14(15)16-4-2/h4H,2-3,5-13H2,1H3",GLVVKKSPKXTQRB-UHFFFAOYSA-N,CCCCCCCCCCCC(=O)OC=C,-5.3547996853,0.0,1,G1,226.35999999999996,4.594000000000004,68.13300000000005,16.0,2.0,0.0,2.0,11.0,94.0,0.0,0.0,0.0,0.0,26.3,100.06896281235187,3.0338210568951656,175.57415488668804
A-2591,zinc(2+) ion bis((dibutylcarbamothioyl)sulfanide),"InChI=1S/2C9H19NS2.Zn/c2*1-3-5-7-10(9(11)12)8-6-4-2;/h2*3-8H2,1-2H3,(H,11,12);/q;;+2/p-2",BOXSVZNGTQTENJ-UHFFFAOYSA-L,[Zn++].CCCCN(CCCC)C([S-])=S.CCCCN(CCCC)C([S-])=S,-5.6759230824,0.0,1,G1,474.1580000000003,5.438300000000006,122.70400000000006,25.0,4.0,0.0,7.0,12.0,144.0,0.0,0.0,0.0,0.0,6.48,191.3797873302859,-3.723076823100594e-07,271.45119045491765
A-2592,"1,4-xylene 4-(methoxycarbonyl)benzoic acid 4-methylbenzoic acid benzoic acid 1,2,4-trimethyl benzene-1,2,4-tricarboxylate 1,2-dimethyl 4-methylbenzene-1,2-dicarboxylate 1,2-dimethyl benzene-1,2-dicarboxylate 1,3-dimethyl benzene-1,3-dicarboxylate 1,4-dimethyl 2-[4-(methoxycarbonyl)phenyl]benzene-1,4-dicarboxylate 1,4-dimethyl benzene-1,4-dicarboxylate 1-[4-(methoxycarbonyl)phenyl]methyl 4-methyl benzene-1,4-dicarboxylate 1-methyl 4-(4-methylphenyl)methyl benzene-1,4-dicarboxylate 2,6-dimethyl 9-oxo-9H-fluorene-2,6-dicarboxylate [4-(methoxycarbonyl)phenyl]methyl 4-methylbenzoate methyl 1-methyl-6-oxo-6H-benzo[c]chromene-4-carboxylate methyl 2-[4-(methoxycarbonyl)phenyl]-4-methylbenzoate methyl 2-[4-(methoxycarbonyl)phenyl]benzoate methyl 3-[4-(methoxycarbonyl)phenyl]benzoate methyl 4-(dimethoxymethyl)benzoate methyl 4-(hydroxymethyl)benzoate methyl 4-[4-(methoxycarbonyl)phenyl]benzoate methyl 4-formylbenzoate methyl 4-methylbenzoate methyl benzoate","InChI=1S/2C18H16O6.C17H12O5.3C17H16O4.C16H12O4.3C16H14O4.C12H12O6.C11H14O4.C11H12O4.3C10H10O4.C9H8O4.C9H10O3.C9H8O3.C9H10O2.2C8H8O2.C8H10.C7H6O2/c1-22-16(19)12-6-4-11(5-7-12)15-10-13(17(20)23-2)8-9-14(15)18(21)24-3;1-22-16(19)13-5-3-12(4-6-13)11-24-18(21)15-9-7-14(8-10-15)17(20)23-2;1-21-16(19)9-4-6-12-13(7-9)11-5-3-10(17(20)22-2)8-14(11)15(12)18;1-11-4-9-14(17(19)21-3)15(10-11)12-5-7-13(8-6-12)16(18)20-2;1-12-3-7-15(8-4-12)17(19)21-11-13-5-9-14(10-6-13)16(18)20-2;1-12-3-5-13(6-4-12)11-21-17(19)15-9-7-14(8-10-15)16(18)20-2;1-9-7-8-12(15(17)19-2)14-13(9)10-5-3-4-6-11(10)16(18)20-14;1-19-15(17)13-7-3-11(4-8-13)12-5-9-14(10-6-12)16(18)20-2;1-19-15(17)12-8-6-11(7-9-12)13-4-3-5-14(10-13)16(18)20-2;1-19-15(17)12-9-7-11(8-10-12)13-5-3-4-6-14(13)16(18)20-2;1-16-10(13)7-4-5-8(11(14)17-2)9(6-7)12(15)18-3;1-13-10(12)8-4-6-9(7-5-8)11(14-2)15-3;1-7-4-5-8(10(12)14-2)9(6-7)11(13)15-3;1-13-9(11)7-3-5-8(6-4-7)10(12)14-2;1-13-9(11)7-4-3-5-8(6-7)10(12)14-2;1-13-9(11)7-5-3-4-6-8(7)10(12)14-2;1-13-9(12)7-4-2-6(3-5-7)8(10)11;2*1-12-9(11)8-4-2-7(6-10)3-5-8;1-7-3-5-8(6-4-7)9(10)11-2;1-6-2-4-7(5-3-6)8(9)10;1-10-8(9)7-5-3-2-4-6-7;1-7-3-5-8(2)6-4-7;8-7(9)6-4-2-1-3-5-6/h4-10H,1-3H3;3-10H,11H2,1-2H3;3-8H,1-2H3;4-10H,1-3H3;2*3-10H,11H2,1-2H3;3-8H,1-2H3;3*3-10H,1-2H3;4-6H,1-3H3;4-7,11H,1-3H3;4-6H,1-3H3;3*3-6H,1-2H3;2-5H,1H3,(H,10,11);2-5,10H,6H2,1H3;2-6H,1H3;3-6H,1-2H3;2-5H,1H3,(H,9,10);2-6H,1H3;3-6H,1-2H3;1-5H,(H,8,9)",DERNUBFICIQBEP-UHFFFAOYSA-N,COC(OC)c1ccc(cc1)C(=O)OC.COC(=O)c2ccccc2.COC(=O)c3ccc(C)cc3.COC(=O)c4ccc(CO)cc4.COC(=O)c5ccc(COC(=O)c6ccc(C)cc6)cc5.COC(=O)c7ccc(COC(=O)c8ccc(cc8)C(=O)OC)cc7.COC(=O)c9ccc(C=O)cc9.COC(=O)c%10ccc(cc%10)C(O)=O.COC(=O)c%11ccc(cc%11)C(=O)OC.COC(=O)c%12ccc(cc%12)C(=O)OCc%13ccc(C)cc%13.COC(=O)c%14ccc(cc%14)c%15ccc(cc%15)C(=O)OC.COC(=O)c%16ccc(cc%16)c%17cccc(c%17)C(=O)OC.COC(=O)c%18ccc(cc%18)c%19ccccc%19C(=O)OC.COC(=O)c%20ccc(cc%20)c%21cc(C)ccc%21C(=O)OC.COC(=O)c%22ccc(cc%22)c%23cc(ccc%23C(=O)OC)C(=O)OC.COC(=O)c%24cccc(c%24)C(=O)OC.COC(=O)c%25ccc(C(=O)OC)c(c%25)C(=O)OC.COC(=O)c%26ccc%27c(c%26)C(=O)c%28ccc(cc%27%28)C(=O)OC.COC(=O)c%29ccc(C)c%30c%29OC(=O)c%31ccccc%30%31.COC(=O)c%32ccccc%32C(=O)OC.COC(=O)c%33ccc(C)cc%33C(=O)OC.Cc%34ccc(C)cc%34.Cc%35ccc(cc%35)C(O)=O.OC(=O)c%36ccccc%36,-6.7316777727999995,0.0,1,G1,5299.456,49.35297999999974,1419.351700000006,388.0,86.0,4.0,89.0,57.0,2012.0,35.0,0.0,1.0,36.0,1214.340000000001,2230.685124322931,3.087176590624184e-07,20720.267708143994
A-2593,"2-[3-(heptan-3-yl)-1,2-oxazolidin-2-yl]ethyl N-{6-[({2-[3-(heptan-3-yl)-1,2-oxazolidin-2-yl]ethoxy}carbonyl)amino]hexyl}carbamate","InChI=1S/C32H62N4O6/c1-5-9-15-27(7-3)29-17-23-41-35(29)21-25-39-31(37)33-19-13-11-12-14-20-34-32(38)40-26-22-36-30(18-24-42-36)28(8-4)16-10-6-2/h27-30H,5-26H2,1-4H3,(H,33,37)(H,34,38)",BDNIMOQMOANQMV-UHFFFAOYSA-N,CCCCC(CC)C1CCON1CCOC(=O)NCCCCCCNC(=O)OCCN2OCCC2C(CC)CCCC,-5.7905608237,0.0,1,G1,598.8700000000001,6.443800000000007,165.90739999999963,42.0,8.0,2.0,10.0,23.0,246.0,0.0,2.0,2.0,2.0,101.60000000000001,255.34548809175985,1.434774981281235,656.4933521871793