ID,Name,InChI,InChIKey,SMILES,Solubility,SD,Ocurrences,Group,MolWt,MolLogP,MolMR,HeavyAtomCount,NumHAcceptors,NumHDonors,NumHeteroatoms,NumRotatableBonds,NumValenceElectrons,NumAromaticRings,NumSaturatedRings,NumAliphaticRings,RingCount,TPSA,LabuteASA,BalabanJ,BertzCT
A-990,"1,3,3-trimethyl-2-oxabicyclo[2.2.2]octane 2-(4-methylcyclohex-3-en-1-yl)propan-2-yl acetate","InChI=1S/C12H20O2.C10H18O/c1-9-5-7-11(8-6-9)12(3,4)14-10(2)13;1-9(2)8-4-6-10(3,11-9)7-5-8/h5,11H,6-8H2,1-4H3;8H,4-7H2,1-3H3",GBIJCMYLVWYAKU-UHFFFAOYSA-N,CC(=O)OC(C)(C)C1CCC(=CC1)C.CC23CCC(CC2)C(C)(C)O3,-3.0213590642000003,0.0,1,G1,350.5430000000001,5.818600000000007,102.47000000000008,25.0,3.0,0.0,3.0,2.0,144.0,0.0,3.0,4.0,4.0,35.53,154.09038264997315,1.8458873953382263e-07,504.6104861877185
A-991,"tris(prop-2-en-1-yloxy)-1,3,5-triazine","InChI=1S/C12H15N3O3/c1-4-7-16-10-13-11(17-8-5-2)15-12(14-10)18-9-6-3/h4-6H,1-3,7-9H2",BJELTSYBAHKXRW-UHFFFAOYSA-N,C=CCOc1nc(OCC=C)nc(OCC=C)n1,-2.8742257801999997,0.5267196768159096,5,G4,249.26999999999998,1.5659999999999998,66.90300000000002,18.0,6.0,0.0,6.0,9.0,96.0,1.0,0.0,0.0,1.0,66.36,105.64665268387382,2.829276282059777,346.7764449018369
A-993,valeric acid,"InChI=1S/C5H10O2/c1-2-3-4-5(6)7/h2-4H2,1H3,(H,6,7)",NQPDZGIKBAWPEJ-UHFFFAOYSA-N,CCCCC(O)=O,-0.490652149,0.0883490879798417,5,G5,102.13299999999998,1.2612,27.160799999999988,7.0,1.0,1.0,2.0,3.0,42.0,0.0,0.0,0.0,0.0,37.3,43.15477533765576,2.8219389370591843,59.10049400592805
A-994,3-methyl-4-phenylbutan-2-ol,"InChI=1S/C11H16O/c1-9(10(2)12)8-11-6-4-3-5-7-11/h3-7,9-10,12H,8H2,1-2H3",VSIXJPFQJMODCS-UHFFFAOYSA-N,CC(O)C(C)Cc1ccccc1,-1.6969729899000001,0.0,1,G1,164.24800000000002,2.2460000000000004,50.99080000000004,12.0,1.0,1.0,1.0,3.0,66.0,1.0,0.0,0.0,1.0,20.23,74.05034744367602,2.52667600839138,215.70553870532206
A-995,"1,3-diethyl 2-butylpropanedioate","InChI=1S/C11H20O4/c1-4-7-8-9(10(12)14-5-2)11(13)15-6-3/h9H,4-8H2,1-3H3",RPNFNBGRHCUORR-UHFFFAOYSA-N,CCCCC(C(=O)OCC)C(=O)OCC,-2.8164963969,0.0,1,G1,216.27699999999993,1.919,56.28100000000004,15.0,4.0,0.0,4.0,7.0,88.0,0.0,0.0,0.0,0.0,52.60000000000001,90.93880683089694,4.278065309404908,182.76460234915862
A-996,"2-(2-undecyl-4,5-dihydro-1H-imidazol-1-yl)ethanol","InChI=1S/C16H32N2O/c1-2-3-4-5-6-7-8-9-10-11-16-17-12-13-18(16)14-15-19/h19H,2-15H2,1H3",QNDGQRJVVZJMJO-UHFFFAOYSA-N,CCCCCCCCCCCC1=NCCN1CCO,-3.8986556211,0.0,1,G1,268.44499999999994,3.613700000000003,82.80480000000006,19.0,3.0,1.0,3.0,12.0,112.0,0.0,0.0,1.0,1.0,35.83,118.65694149850898,1.9026512205593906,240.9034322441643
A-997,1-chloro-4-(trifluoromethyl)benzene,"InChI=1S/C7H4ClF3/c8-6-3-1-5(2-4-6)7(9,10)11/h1-4H",QULYNCCPRWKEMF-UHFFFAOYSA-N,FC(F)(F)c1ccc(Cl)cc1,-3.7276952245999997,0.0,1,G1,180.55599999999998,3.3588000000000013,36.454000000000015,11.0,0.0,0.0,4.0,0.0,60.0,1.0,0.0,0.0,1.0,0.0,66.59621766955395,2.993754788259927,236.8577532761268
A-998,4-(4-hydroxyphenyl)phenol,"InChI=1S/C12H10O2/c13-11-5-1-9(2-6-11)10-3-7-12(14)8-4-10/h1-8,13-14H",VCCBEIPGXKNHFW-UHFFFAOYSA-N,Oc1ccc(cc1)c2ccc(O)cc2,-3.7423730992000004,0.0,1,G1,186.21,2.764800000000001,55.20760000000003,14.0,2.0,2.0,2.0,1.0,70.0,2.0,0.0,0.0,2.0,40.46,82.07696482995303,2.396509039726096,371.5796467381504
A-999,"1,4-bis[(E)-prop-1-enoxy]cyclohexane 1,4-di(prop-1-enoxy)cyclohexane","InChI=1S/C12H20O2/c1-3-9-13-11-5-7-12(8-6-11)14-10-4-2/h3-4,9-12H,5-8H2,1-2H3/b9-3+,10-4+",TXHDDWGFTSDFEB-LQIBPGRFSA-N,C\C=C\OC1CCC(CC1)O\C=C\C,-3.9037320906999997,0.02337170175000014,2,G3,196.29,3.3980000000000024,57.84200000000004,14.0,2.0,0.0,2.0,4.0,80.0,0.0,1.0,1.0,1.0,18.46,86.59566752730825,2.1700073192128397,166.49841012019368
A-1000,"1,7-dioxacycloheptadecan-8-one",InChI=1S/C15H28O3/c16-15-11-7-4-2-1-3-5-8-12-17-13-9-6-10-14-18-15/h1-14H2,MKEIDVFLAWJKMY-UHFFFAOYSA-N,O=C1CCCCCCCCCOCCCCCO1,-3.8838494997,0.0,1,G1,256.3859999999999,3.850900000000003,72.56500000000005,18.0,3.0,0.0,3.0,0.0,106.0,0.0,1.0,1.0,1.0,35.53,111.23122203491039,2.113694135690367,183.91539480971147
A-1002,9-Methylnonadecane,"InChI=1S/C20H42/c1-4-6-8-10-12-13-15-17-19-20(3)18-16-14-11-9-7-5-2/h20H,4-19H2,1-3H3",FFVPRSKCTDQLBP-UHFFFAOYSA-N,CCCCCCCCCCC(C)CCCCCCCC,-6.4511045339,0.0,1,G1,282.556,7.903900000000008,94.38400000000009,20.0,0.0,0.0,0.0,16.0,122.0,0.0,0.0,0.0,0.0,0.0,129.67315120136513,3.1014700581726964,161.42124551085624
A-1003,(E)-(carbamoylimino)urea; (Z)-(carbamoylimino)urea,"InChI=1S/C2H4N4O2/c3-1(7)5-6-2(4)8/h(H2,3,7)(H2,4,8)",XOZUGNYVDXMRKW-UHFFFAOYSA-N,NC(=O)N=NC(N)=O,-3.5462434596,0.0,1,G1,116.08,-0.40399999999999986,24.022800000000007,8.0,2.0,2.0,6.0,0.0,44.0,0.0,0.0,0.0,0.0,110.9,44.5537965808282,3.668626461933803,122.97373660251154
A-1004,"2,4-di-tert-butylphenol","InChI=1S/C14H22O/c1-13(2,3)10-7-8-12(15)11(9-10)14(4,5)6/h7-9,15H,1-6H3",ICKWICRCANNIBI-UHFFFAOYSA-N,CC(C)(C)c1ccc(O)c(c1)C(C)(C)C,-3.7960463333999996,0.012773166699999727,2,G3,206.32899999999995,3.987200000000003,65.50680000000006,15.0,1.0,1.0,1.0,0.0,84.0,1.0,0.0,0.0,1.0,20.23,93.14517378686584,3.2993579461545743,350.58194170955596
A-1005,3-(4-tert-butylphenyl)-2-methylpropanal,"InChI=1S/C14H20O/c1-11(10-15)9-12-5-7-13(8-6-12)14(2,3)4/h5-8,10-11H,9H2,1-4H3",SDQFDHOLCGWZPU-UHFFFAOYSA-N,CC(Cc1ccc(cc1)C(C)(C)C)C=O,-3.7917820608999997,0.06734928694999986,2,G3,204.31299999999996,3.361600000000002,64.07400000000004,15.0,1.0,0.0,1.0,3.0,82.0,1.0,0.0,0.0,1.0,17.07,92.51246213471359,2.768132115506002,316.1870914248574
A-1006,3-amino-4-methoxy-N-phenylbenzamide,"InChI=1S/C14H14N2O2/c1-18-13-8-7-10(9-12(13)15)14(17)16-11-5-3-2-4-6-11/h2-9H,15H2,1H3,(H,16,17)",LHMQDVIHBXWNII-UHFFFAOYSA-N,COc1ccc(cc1N)C(=O)Nc2ccccc2,-3.86580004,0.0,1,G1,242.27800000000002,2.529700000000001,71.80160000000002,18.0,3.0,2.0,4.0,3.0,92.0,2.0,0.0,0.0,2.0,64.35,105.38320176452562,2.1681398584185176,552.9753791161851
A-1007,methanidylidyneoxidanium,InChI=1S/CO/c1-2,UGFAIRIUMAVXCW-UHFFFAOYSA-N,[C-]#[O+],-2.9287991689,0.0,1,G1,28.009999999999998,-0.03751,3.9295,2.0,0.0,0.0,1.0,0.0,10.0,0.0,0.0,0.0,0.0,19.9,12.61969834340442,3.0,6.754887502163469
A-1009,2-chloro-2-methylbutane,"InChI=1S/C5H11Cl/c1-4-5(2,3)6/h4H2,1-3H3",CRNIHJHMEQZAAS-UHFFFAOYSA-N,CCC(C)(C)Cl,-2.5105450102,0.5006590209499999,2,G2,106.59599999999999,2.4138,30.222999999999985,6.0,0.0,0.0,1.0,1.0,38.0,0.0,0.0,0.0,0.0,0.0,44.50228571229765,3.168489872670569,33.69332843436965
A-1011,"2,2',2'',2'''-(ethane-1,2-diyldinitrilo)tetraacetonitrile",InChI=1S/C10H12N6/c11-1-5-15(6-2-12)9-10-16(7-3-13)8-4-14/h5-10H2,FDWRKVKXYZRYOD-UHFFFAOYSA-N,N#CCN(CCN(CC#N)CC#N)CC#N,-2.8204043469,0.015837084499999765,2,G3,216.24799999999996,-0.31528,55.33200000000003,16.0,6.0,0.0,6.0,7.0,82.0,0.0,0.0,0.0,0.0,101.63999999999999,95.11371612368062,4.065699413638532,281.4664441333382
A-1013,tert-butyl benzenecarboperoxoate,"InChI=1S/C11H14O3/c1-11(2,3)14-13-10(12)9-7-5-4-6-8-9/h4-8H,1-3H3",GJBRNHKUVLOCEB-UHFFFAOYSA-N,CC(C)(C)OOC(=O)c1ccccc1,-2.7764329492,0.0,1,G1,194.23000000000002,2.573500000000001,52.69550000000004,14.0,3.0,0.0,3.0,2.0,76.0,1.0,0.0,0.0,1.0,35.53,83.57402156627585,2.523434610495391,298.05872454975145
A-1014,"1,1-difluoroethane","InChI=1S/C2H4F2/c1-2(3)4/h2H,1H3",NPNPZTNLOVBDOC-UHFFFAOYSA-N,CC(F)F,-1.3147228436,0.02899597350000005,2,G3,66.05,1.2714,11.678000000000003,4.0,0.0,0.0,2.0,0.0,26.0,0.0,0.0,0.0,0.0,0.0,23.435263948078628,2.3237900077244498,8.75488750216347
A-1015,"3,7-dimethyloctan-3-ol","InChI=1S/C10H22O/c1-5-10(4,11)8-6-7-9(2)3/h9,11H,5-8H2,1-4H3",DLHQZZUEERVIGQ-UHFFFAOYSA-N,CCC(C)(O)CCCC(C)C,-2.6942897822000003,0.05115252245000024,2,G3,158.28499999999997,2.973700000000002,49.60380000000003,11.0,1.0,1.0,1.0,5.0,68.0,0.0,0.0,0.0,0.0,20.23,70.81796380959503,3.376278757117517,95.04589952780505
A-1016,"5-methoxy-1,3-dihydro-2H-benzimidazole-2-thione","InChI=1S/C8H8N2OS/c1-11-5-2-3-6-7(4-5)10-8(12)9-6/h2-4H,1H3,(H2,9,10,12)",KOFBRZWVWJCLGM-UHFFFAOYSA-N,COc1ccc2NC(=S)Nc2c1,-2.7506819237,0.0,1,G1,180.232,2.23409,50.03540000000002,12.0,2.0,2.0,4.0,1.0,62.0,2.0,0.0,0.0,2.0,40.81,74.37914364430135,2.742606371299562,457.2709542723538
A-1018,bromo(trifluoro)methane,"InChI=1S/CBrF3/c2-1(3,4)5",RJCQBQGAPKAMLL-UHFFFAOYSA-N,FC(F)(F)Br,-2.6677709687999998,0.0,1,G1,148.909,1.9011,14.982,5.0,0.0,0.0,4.0,0.0,32.0,0.0,0.0,0.0,0.0,0.0,35.10340484224961,3.0237157840738176,22.364527976600282
A-1020,"zinc bis(O,O-diisooctyl) bis(dithiophosphate)","InChI=1S/2C16H35O2PS2.Zn/c2*1-15(2)11-7-5-9-13-17-19(20,21)18-14-10-6-8-12-16(3)4;/h2*15-16H,5-14H2,1-4H3,(H,20,21);/q;;+2/p-2",SXYOAESUCSYJNZ-UHFFFAOYSA-L,[Zn++].CC(C)CCCCCO[P]([S-])(=S)OCCCCCC(C)C.CC(C)CCCCCO[P]([S-])(=S)OCCCCCC(C)C,-4.3707014658,0.0,1,G1,772.498,12.44509999999998,200.33199999999917,43.0,8.0,0.0,11.0,28.0,256.0,0.0,0.0,0.0,0.0,36.92,302.7896149514579,-7.272726872190105e-07,581.7531357226419
A-1021,2-({[6-(oxiran-2-ylmethoxy)naphthalen-1-yl]oxy}methyl)oxirane,"InChI=1S/C16H16O4/c1-2-11-6-12(17-7-13-8-18-13)4-5-15(11)16(3-1)20-10-14-9-19-14/h1-6,13-14H,7-10H2",MEVBAGCIOOTPLF-UHFFFAOYSA-N,C1OC1COc2ccc3c(OCC4CO4)cccc3c2,-3.9191737976,0.0,1,G1,272.29999999999995,2.3950000000000005,74.41800000000003,20.0,4.0,0.0,4.0,6.0,104.0,2.0,2.0,2.0,4.0,43.519999999999996,116.7452389485809,1.5369391089183113,616.9030237837436
A-1022,"(2E)-3,7-dimethylocta-2,6-dien-1-yl formate","InChI=1S/C11H18O2/c1-10(2)5-4-6-11(3)7-8-13-9-12/h5,7,9H,4,6,8H2,1-3H3/b11-7+",FQMZVFJYMPNUCT-YRNVUSSQSA-N,CC(C)=CCC\C(C)=C\COC=O,-3.7461507617,0.0,1,G1,182.26299999999998,2.852100000000001,54.43800000000004,13.0,2.0,0.0,2.0,6.0,74.0,0.0,0.0,0.0,0.0,26.3,80.28453343697775,3.6012994505983236,198.13581850944652
A-1023,pentalead tetraoxide sulphate,"InChI=1S/H2O4S.4H2O.5Pb/c1-5(2,3)4;;;;;;;;;/h(H2,1,2,3,4);4*1H2;;;;;/p-2",BKMAZJUOHZYBFP-UHFFFAOYSA-L,O.O.O.O.[Pb].[Pb].[Pb].[Pb].[Pb].[O-][S]([O-])(=O)=O,-4.5661230993,0.0,1,G1,1204.123,-6.540799999999996,53.699800000000025,14.0,4.0,0.0,14.0,0.0,84.0,0.0,0.0,0.0,0.0,206.26,182.34195413319313,-2.222222212037037e-09,100.90004630262521
A-1024,"(3E)-4-(2,5,6,6-tetramethylcyclohex-2-en-1-yl)but-3-en-2-one","InChI=1S/C14H22O/c1-10-6-7-11(2)14(4,5)13(10)9-8-12(3)15/h6,8-9,11,13H,7H2,1-5H3/b9-8+/t11-,13+/m1/s1",JZQOJFLIJNRDHK-UZPJXDOOSA-N,C[C@@H]1CC=C(C)[C@H](\C=C\C(C)=O)C1(C)C,-3.8026769123000004,0.0,1,G1,206.32899999999995,3.760100000000003,64.63000000000004,15.0,1.0,0.0,1.0,2.0,84.0,0.0,0.0,1.0,1.0,17.07,93.25998339713148,2.9635039500418134,307.3003900253213
A-1025,cyclohexylmethyl-dimethoxysilane,"InChI=1S/C9H20O2Si/c1-10-12(11-2)8-9-6-4-3-5-7-9/h9,12H,3-8H2,1-2H3",XRLIOAUFFCHSIC-UHFFFAOYSA-N,CO[SiH](CC1CCCCC1)OC,-3.0959725364999997,0.0,1,G1,188.34299999999996,2.08,52.54900000000004,12.0,2.0,0.0,3.0,4.0,72.0,0.0,1.0,1.0,1.0,18.46,77.10436617048376,2.179610751888058,109.09616281328597
A-1027,5-amino-2-[(E)-2-(4-amino-2-sulfophenyl)ethenyl]benzene-1-sulfonic acid,"InChI=1S/C14H14N2O6S2/c15-11-5-3-9(13(7-11)23(17,18)19)1-2-10-4-6-12(16)8-14(10)24(20,21)22/h1-8H,15-16H2,(H,17,18,19)(H,20,21,22)/b2-1+",REJHVSOVQBJEBF-OWOJBTEDSA-N,Nc1ccc(\C=C\c2ccc(N)cc2[S](O)(=O)=O)c(c1)[S](O)(=O)=O,-4.0635303795999995,0.6345924970286498,3,G4,370.4080000000001,1.5148000000000006,90.26600000000002,24.0,6.0,4.0,10.0,4.0,128.0,2.0,0.0,0.0,2.0,160.78,138.46583193627663,2.586773510100684,943.725349530695
A-1028,"zinc 4-methyl-2-thioxo-2,3-dihydrobenzimidazol-1-ide 7-methyl-2-thioxo-2,3-dihydrobenzimidazol-1-ide","InChI=1S/2C8H8N2S.Zn/c2*1-5-3-2-4-6-7(5)10-8(11)9-6;/h2*2-4H,1H3,(H2,9,10,11);/q;;+2/p-2",GHPJYLIEFFVDGR-UHFFFAOYSA-L,[Zn++].Cc1cccc2[N-]C(=S)Nc12.Cc3cccc4NC(=S)[N-]c34,-4.0879587895,0.0,1,G1,391.8400000000001,4.323520000000002,94.3794,23.0,2.0,2.0,7.0,0.0,112.0,4.0,0.0,0.0,4.0,59.78,156.04604711225008,1.5999999783240743e-07,969.0023064453073
A-1029,3-[hydroxy(phenyl)phosphoryl]propanoic acid,"InChI=1S/C9H11O4P/c10-9(11)6-7-14(12,13)8-4-2-1-3-5-8/h1-5H,6-7H2,(H,10,11)(H,12,13)",MORLYCDUFHDZKO-UHFFFAOYSA-N,OC(=O)CC[P](O)(=O)c1ccccc1,-0.8283051545000001,1.0658967177567118,3,G4,214.15700000000004,1.057,53.021100000000025,14.0,2.0,2.0,5.0,4.0,76.0,1.0,0.0,0.0,1.0,74.6,81.6524892253432,2.759325797670845,360.3345205930412
A-1030,(phenylmethanesulfinylmethyl)benzene,"InChI=1S/C14H14OS/c15-16(11-13-7-3-1-4-8-13)12-14-9-5-2-6-10-14/h1-10H,11-12H2",HTMQZWFSTJVJEQ-UHFFFAOYSA-N,O=[S](Cc1ccccc1)Cc2ccccc2,-2.8588087212,0.0,1,G1,230.332,3.1355000000000013,68.43440000000004,16.0,1.0,0.0,2.0,4.0,82.0,2.0,0.0,0.0,2.0,17.07,98.59263575793015,1.9521941477943936,407.1762620527603
A-1032,2-[(E)-2-(1-cyano-1-methylethyl)diazen-1-yl]-2-methylpropanenitrile,"InChI=1S/C8H12N4/c1-7(2,5-9)11-12-8(3,4)6-10/h1-4H3",OZAIFHULBGXAKX-UHFFFAOYSA-N,CC(C)(N=NC(C)(C)C#N)C#N,-2.7132509977,0.020957075749999943,2,G3,164.212,2.04296,44.24000000000002,12.0,4.0,0.0,4.0,2.0,64.0,0.0,0.0,0.0,0.0,72.3,72.52578303603232,4.502454436161649,233.7628977173992
A-1033,2-methylbutyl acrylate,"InChI=1S/C8H14O2/c1-4-7(3)6-10-8(9)5-2/h5,7H,2,4,6H2,1,3H3",NCTBYWFEJFTVEL-UHFFFAOYSA-N,CCC(C)COC(=O)C=C,-2.6532064055,0.0,1,G1,142.19799999999998,1.7617,40.611000000000004,10.0,2.0,0.0,2.0,4.0,58.0,0.0,0.0,0.0,0.0,26.3,61.87931012597218,3.3441326792281494,118.42599881712917
A-1034,"2-chloro-1,3-benzothiazole",InChI=1S/C7H4ClNS/c8-7-9-5-3-1-2-4-6(5)10-7/h1-4H,BSQLQMLFTHJVKS-UHFFFAOYSA-N,Clc1sc2ccccc2n1,-2.7325883751999998,0.0,1,G1,169.636,2.949700000000001,44.63000000000001,10.0,2.0,0.0,3.0,0.0,50.0,2.0,0.0,0.0,2.0,12.89,67.27634512947185,2.876510166944625,322.1335934262614
A-1035,"2-aminoethan-1-ol; 6-cyclohexyl-1-hydroxy-4-methyl-1,2-dihydropyridin-2-one","InChI=1S/C12H17NO2.C2H7NO/c1-9-7-11(13(15)12(14)8-9)10-5-3-2-4-6-10;3-1-2-4/h7-8,10,15H,2-6H2,1H3;4H,1-3H2",MBRHNTMUYWQHMR-UHFFFAOYSA-N,CC1=CC(=O)N(O)C(=C1)C2CCCCC2.NCCO,-0.9331685906,0.0,1,G1,268.3569999999999,1.37912,74.58970000000004,19.0,5.0,3.0,5.0,2.0,108.0,1.0,1.0,1.0,2.0,88.48,113.18942041753478,3.989999644296944e-07,434.8074841091304
A-1038,"4,7-dichloroquinoline",InChI=1S/C9H5Cl2N/c10-6-1-2-7-8(11)3-4-12-9(7)5-6/h1-5H,HXEWMTXDBOQQKO-UHFFFAOYSA-N,Clc1ccc2c(Cl)ccnc2c1,-2.8026246383999998,0.0,1,G1,198.052,3.5416000000000007,51.76300000000001,12.0,1.0,0.0,3.0,0.0,60.0,2.0,0.0,0.0,2.0,12.89,79.93924808594203,2.8630257936849905,425.7980911891212
A-1041,2-aminobenzenesulfonic acid,"InChI=1S/C6H7NO3S/c7-5-3-1-2-4-6(5)11(8,9)10/h1-4H,7H2,(H,8,9,10)",ZMCHBSMFKQYNKA-UHFFFAOYSA-N,Nc1ccccc1[S](O)(=O)=O,-1.7471686412,0.0,1,G1,173.19299999999998,0.5155000000000001,40.669000000000004,11.0,3.0,2.0,5.0,1.0,60.0,1.0,0.0,0.0,1.0,80.39,64.3999298265503,3.3721948109608206,357.84507449357193
A-1042,bis(propan-2-yloxy)titaniumbis(ylium) bis((2Z)-4-oxopent-2-en-2-olate),"InChI=1S/2C5H7O2.2C3H7O.Ti/c2*1-4(6)3-5(2)7;2*1-3(2)4;/h2*3H,1-2H3;2*3H,1-2H3;/q4*-1;+4",DOOBMVWXHWRGEB-UHFFFAOYSA-N,[Ti+4].CC(C)[O-].CC(C)[O-].CC(=O)[CH-]C(C)=O.CC(=O)[CH-]C(C)=O,-2.0700509816999997,0.0,1,G1,364.26100000000014,0.24507999999999996,81.59600000000006,23.0,6.0,0.0,7.0,4.0,132.0,0.0,0.0,0.0,0.0,114.39999999999998,154.47156572345548,-6.394736806944469e-08,263.02237498065745
A-1043,4-acetamidobenzene-1-sulfonyl chloride,"InChI=1S/C8H8ClNO3S/c1-6(11)10-7-2-4-8(5-3-7)14(9,12)13/h2-5H,1H3,(H,10,11)",GRDXCFKBQWDAJH-UHFFFAOYSA-N,CC(=O)Nc1ccc(cc1)[S](Cl)(=O)=O,-2.8772524161,0.5442109514,2,G2,233.676,1.5724999999999998,53.78450000000002,14.0,3.0,1.0,6.0,2.0,76.0,1.0,0.0,0.0,1.0,63.24,86.30513949380608,2.951896247179317,438.159125541551
A-1050,"2,2,6-trimethylcyclohexyl propanoate","InChI=1S/C12H22O2/c1-5-10(13)14-11-9(2)7-6-8-12(11,3)4/h9,11H,5-8H2,1-4H3",JFBKOWCEVLNQHV-UHFFFAOYSA-N,CCC(=O)OC1C(C)CCCC1(C)C,-3.8031812605,0.0,1,G1,198.30599999999993,3.1544000000000016,56.96700000000005,14.0,2.0,0.0,2.0,2.0,82.0,0.0,1.0,1.0,1.0,26.3,87.02285046221365,2.6507061427510767,208.36726887877518
A-1051,"1,4-dimethyl benzene-1,4-dicarboxylate","InChI=1S/C10H10O4/c1-13-9(11)7-3-5-8(6-4-7)10(12)14-2/h3-6H,1-2H3",WOZVHXUHUFLZGK-UHFFFAOYSA-N,COC(=O)c1ccc(cc1)C(=O)OC,-3.7968562219999997,0.18225210484145818,4,G5,194.18599999999998,1.2597999999999998,49.12100000000002,14.0,4.0,0.0,4.0,2.0,74.0,1.0,0.0,0.0,1.0,52.60000000000001,81.44130623618467,2.8864821283777804,304.64456038916694
A-1052,2-heptylcyclopentan-1-one,"InChI=1S/C12H22O/c1-2-3-4-5-6-8-11-9-7-10-12(11)13/h11H,2-10H2,1H3",PJXHBTZLHITWFX-UHFFFAOYSA-N,CCCCCCCC1CCCC1=O,-3.7694416506,0.0,1,G1,182.30699999999996,3.7161000000000026,55.724000000000046,13.0,1.0,0.0,1.0,6.0,76.0,0.0,1.0,1.0,1.0,17.07,81.9093052327068,1.9577733884568045,151.2034663791036
A-1053,benzyl 2-phenylacetate,"InChI=1S/C15H14O2/c16-15(11-13-7-3-1-4-8-13)17-12-14-9-5-2-6-10-14/h1-10H,11-12H2",MIYFJEKZLFWKLZ-UHFFFAOYSA-N,O=C(Cc1ccccc1)OCc2ccccc2,-3.8632748797000005,0.0,1,G1,226.27499999999998,2.972500000000001,66.38400000000004,17.0,2.0,0.0,2.0,4.0,86.0,2.0,0.0,0.0,2.0,26.3,100.85839099830149,1.8256631842294238,462.79519750366035
A-1056,"N,N-dimethyl[(dimethylcarbamothioyl)sulfanyl]carbothioamide",InChI=1S/C6H12N2S3/c1-7(2)5(9)11-6(10)8(3)4/h1-4H3,REQPQFUJGGOFQL-UHFFFAOYSA-N,CN(C)C(=S)SC(=S)N(C)C,-2.8302990647,0.0,1,G1,208.377,1.4126,60.16100000000003,11.0,3.0,0.0,5.0,0.0,64.0,0.0,0.0,0.0,0.0,6.48,82.92429945999432,3.8624101150224392,147.2103308093761
A-1058,"3,7-dimethyloct-6-en-1-ol","InChI=1S/C10H20O/c1-9(2)5-4-6-10(3)7-8-11/h5,10-11H,4,6-8H2,1-3H3/t10-/m1/s1",QMVPMAAFGQKVCJ-SNVBAGLBSA-N,C[C@@H](CCO)CCC=C(C)C,-2.7067344575,0.005008560399999862,2,G3,156.26899999999998,2.7513000000000014,49.531800000000025,11.0,1.0,1.0,1.0,5.0,66.0,0.0,0.0,0.0,0.0,20.23,70.12836077741078,3.3063817487883043,112.04118472439221
A-1059,"4,7-dimethyloct-6-en-3-one","InChI=1S/C10H18O/c1-5-10(11)9(4)7-6-8(2)3/h6,9H,5,7H2,1-4H3",WKQWDIFHKYWRTA-UHFFFAOYSA-N,CCC(=O)C(C)CC=C(C)C,-2.7010952437,0.0,1,G1,154.253,2.9579000000000013,48.510000000000026,11.0,1.0,0.0,1.0,4.0,64.0,0.0,0.0,0.0,0.0,17.07,69.49564912525852,3.7811047771060875,152.2557123669929
A-1060,"2-amino-3,5-dimethylbenzene-1-sulfonic acid","InChI=1S/C8H11NO3S/c1-5-3-6(2)8(9)7(4-5)13(10,11)12/h3-4H,9H2,1-2H3,(H,10,11,12)",CFCXQQUQLZIZPI-UHFFFAOYSA-N,Cc1cc(C)c(N)c(c1)[S](O)(=O)=O,-1.8195435038999999,0.0,1,G1,201.24699999999999,1.1323400000000001,50.143000000000015,13.0,3.0,2.0,5.0,1.0,72.0,1.0,0.0,0.0,1.0,80.39,77.12981405534352,3.5578708456539703,436.9475157016673
A-1062,thiophene,InChI=1S/C4H4S/c1-2-4-5-3-1/h1-4H,YTPLMLYBLZKORZ-UHFFFAOYSA-N,s1cccc1,-1.4450110492,0.05750552459999991,2,G3,84.143,1.7481,24.318999999999996,5.0,1.0,0.0,1.0,0.0,26.0,1.0,0.0,0.0,1.0,0.0,35.07176638990846,3.1250000000000004,60.12481811269772
A-1065,4-[2-(4-hydroxyphenyl)propan-2-yl]phenol,"InChI=1S/C15H16O2/c1-15(2,11-3-7-13(16)8-4-11)12-5-9-14(17)10-6-12/h3-10,16-17H,1-2H3",IISBACLAFKSPIT-UHFFFAOYSA-N,CC(C)(c1ccc(O)cc1)c2ccc(O)cc2,-2.8799222949,0.18625422474922962,4,G5,228.291,3.423700000000002,68.34160000000003,17.0,2.0,2.0,2.0,2.0,88.0,2.0,0.0,0.0,2.0,40.46,101.17179117314286,2.412580781491558,447.94995845416787
A-1066,"2,2,2-trichloroacetaldehyde","InChI=1S/C2HCl3O/c3-2(4,5)1-6/h1H",HFFLGKNGCAIQMO-UHFFFAOYSA-N,ClC(Cl)(Cl)C=O,-0.691340871,1.22097841885,2,G2,147.388,1.5554999999999999,26.353999999999996,6.0,1.0,0.0,4.0,0.0,36.0,0.0,0.0,0.0,0.0,17.07,50.175513922914945,3.4459912135188393,54.303762523798156
A-1067,2-methylbutan-1-ol,"InChI=1S/C5H12O/c1-3-5(2)4-6/h5-6H,3-4H2,1-2H3",QPRQEDXDYOZYLA-UHFFFAOYSA-N,CCC(C)CO,-0.46810106189999995,0.0,1,G1,88.14999999999999,1.0248,26.54079999999999,6.0,1.0,1.0,1.0,2.0,38.0,0.0,0.0,0.0,0.0,20.23,38.99325323761199,2.7541847860376616,23.11941547876375
A-1068,Fusel oil,"InChI=1S/C5H12O/c1-5(2)3-4-6/h5-6H,3-4H2,1-2H3",PHTQWCKDNZKARW-UHFFFAOYSA-N,CC(C)CCO,-0.46810106189999995,0.22609011810343713,3,G5,88.14999999999999,1.0248,26.54079999999999,6.0,1.0,1.0,1.0,2.0,38.0,0.0,0.0,0.0,0.0,20.23,38.99325323761199,2.6272148478988635,25.11941547876375