ID,Name,InChI,InChIKey,SMILES,Solubility,SD,Ocurrences,Group,MolWt,MolLogP,MolMR,HeavyAtomCount,NumHAcceptors,NumHDonors,NumHeteroatoms,NumRotatableBonds,NumValenceElectrons,NumAromaticRings,NumSaturatedRings,NumAliphaticRings,RingCount,TPSA,LabuteASA,BalabanJ,BertzCT
A-3673,(2S)-2-amino-4-carbamoylbutanoic acid,"InChI=1S/C5H10N2O3/c6-3(5(9)10)1-2-4(7)8/h3H,1-2,6H2,(H2,7,8)(H,9,10)/t3-/m0/s1",ZDXPYRJPNDTMRX-VKHMYHEASA-N,N[C@@H](CCC(N)=O)C(O)=O,-0.5483114193999999,0.0317820318,2,G3,146.14600000000002,-1.3361999999999998,34.03959999999999,10.0,3.0,3.0,5.0,4.0,58.0,0.0,0.0,0.0,0.0,106.41,57.996078831724944,3.4907296603908136,145.8284895747849
A-3674,(2S)-2-amino-3-methylpentanoic acid,"InChI=1S/C6H13NO2/c1-3-4(2)5(7)6(8)9/h4-5H,3,7H2,1-2H3,(H,8,9)/t4-,5-/m0/s1",AGPKZVBTJJNPAG-WHFBIAKZSA-N,CC[C@H](C)[C@H](N)C(O)=O,-0.5029538568,0.04170914949999999,2,G3,131.17499999999998,0.44439999999999996,35.06619999999998,9.0,2.0,2.0,3.0,3.0,54.0,0.0,0.0,0.0,0.0,63.32,54.859608149065075,3.7161367711827205,103.23098268032228
A-3675,"2-[(2H-1,3-benzodioxol-5-yl)amino]ethan-1-ol hydrochloride","InChI=1S/C9H11NO3.ClH/c11-4-3-10-7-1-2-8-9(5-7)13-6-12-8;/h1-2,5,10-11H,3-4,6H2;1H",LMONVTDNVNEAQG-UHFFFAOYSA-N,[H+].[Cl-].OCCNc1ccc2OCOc2c1,0.2728975009,0.0,1,G1,217.652,-2.0639999999999983,49.252500000000026,14.0,4.0,2.0,5.0,3.0,78.0,1.0,0.0,1.0,2.0,50.72,89.72947632602033,9.799998415666933e-07,311.40897284476256
A-3678,"2,5-dihydrofuran-2,5-dione",InChI=1S/C4H2O3/c5-3-1-2-4(6)7-3/h1-2H,FPYJFEHAWHCUMM-UHFFFAOYSA-N,O=C1OC(=O)C=C1,0.6181158071,0.005790936299999994,2,G3,98.05699999999997,-0.3740000000000001,20.238999999999997,7.0,3.0,0.0,3.0,0.0,36.0,0.0,0.0,1.0,1.0,43.370000000000005,39.5752326149003,2.759543614305127,129.013897004163
A-3683,disodium carbonate,"InChI=1S/CH2O3.2Na/c2-1(3)4;;/h(H2,2,3,4);;/q;2*+1/p-2",CDBYLPFSWZWCQE-UHFFFAOYSA-L,[Na+].[Na+].[O-]C([O-])=O,0.581124668,0.13951121534999997,2,G3,105.98799999999999,-8.439,5.396,6.0,3.0,0.0,5.0,0.0,24.0,0.0,0.0,0.0,0.0,63.19,79.31603987768926,-4.4999999250000016e-08,31.77443751081734
A-3685,"disodium 7-({bis[(2-hydroxyethyl)amino]-1,3,5-triazin-2-yl}amino)-4-hydroxy-3-[(E)-2-{4-[(E)-2-(4-sulfonatophenyl)diazen-1-yl]phenyl}diazen-1-yl]naphthalene-2-sulfonate","InChI=1S/C29H28N10O9S2.2Na/c40-13-11-30-27-33-28(31-12-14-41)35-29(34-27)32-21-7-10-23-17(15-21)16-24(50(46,47)48)25(26(23)42)39-38-19-3-1-18(2-4-19)36-37-20-5-8-22(9-6-20)49(43,44)45;;/h1-10,15-16,38,40-41H,11-14H2,(H,43,44,45)(H,46,47,48)(H3,30,31,32,33,34,35);;/q;2*+1/p-2/b37-36?,39-25-;;",GCRNVICBLHQKTF-FOZHKXGMSA-L,[Na+].[Na+].OCCNc1nc(NCCO)nc(Nc2ccc3C(=O)C(=N/Nc4ccc(cc4)N=Nc5ccc(cc5)[S]([O-])(=O)=O)\C(=Cc3c2)[S]([O-])(=O)=O)n1,-0.28369801969999997,0.0,1,G1,768.7020000000003,-3.6983999999999897,178.78829999999977,52.0,19.0,6.0,23.0,14.0,260.0,4.0,0.0,1.0,5.0,295.79999999999995,340.83147836494516,3.6449930791544406e-06,2197.0480393407374
A-3687,2-methyloxirane,"InChI=1S/C3H6O/c1-3-2-4-3/h3H,2H2,1H3/t3-/m0/s1",GOOHAUXETOMSMM-VKHMYHEASA-N,C[C@H]1CO1,0.8380333836,0.0,1,G1,58.08,0.4051,15.414000000000001,4.0,1.0,0.0,1.0,0.0,24.0,0.0,1.0,1.0,1.0,12.53,25.576849332600414,2.171098317873574,22.464393446710154
A-3688,"disodium 2,2'-(azodi-p-phenylene)bis[6-methylbenzothiazole-7-sulphonate]","InChI=1S/C28H20N4O6S4.2Na/c1-15-3-13-21-23(25(15)41(33,34)35)39-27(29-21)17-5-9-19(10-6-17)31-32-20-11-7-18(8-12-20)28-30-22-14-4-16(2)26(24(22)40-28)42(36,37)38;;/h3-14H,1-2H3,(H,33,34,35)(H,36,37,38);;/q;2*+1/p-2",GRUAQEWEHJNSDG-UHFFFAOYSA-L,[Na+].[Na+].Cc1ccc2nc(sc2c1[S]([O-])(=O)=O)c3ccc(cc3)N=Nc4ccc(cc4)c5sc6c(ccc(C)c6[S]([O-])(=O)=O)n5,-1.2223096235,0.0,1,G1,680.7220000000002,1.088440000000003,159.68839999999975,44.0,12.0,0.0,16.0,6.0,212.0,6.0,0.0,0.0,6.0,164.89999999999998,304.9467706426629,2.2089970685748265e-06,2106.398435817136
A-3690,1-[2-(2-butoxy-1-methylethoxy)-1-methylethoxy]propan-1-ol,"InChI=1S/C13H28O4/c1-4-15-7-5-6-13(3)17-9-8-16-11-12(2)10-14/h12-14H,4-11H2,1-3H3",QVIFIIFBFORLSL-UHFFFAOYSA-N,CCOCCCC(C)OCCOCC(C)CO,-0.790860844,0.0,1,G1,248.36299999999994,1.8531999999999997,68.20980000000006,17.0,4.0,1.0,4.0,12.0,104.0,0.0,0.0,0.0,0.0,47.92,105.2534258413055,3.18373698989551,152.35488856793313
A-3691,(1R)-1-phenylethan-1-amine,"InChI=1S/C8H11N/c1-7(9)8-5-3-2-4-6-8/h2-7H,9H2,1H3",RQEUFEKYXDPUSK-UHFFFAOYSA-N,CC(N)c1ccccc1,-0.4813817083,0.010594649499999997,2,G3,121.18299999999995,1.7063000000000001,39.04440000000001,9.0,1.0,1.0,1.0,1.0,48.0,1.0,0.0,0.0,1.0,26.02,55.50117804530289,2.848234050597751,167.1823264341432
A-3692,dipotassium zinc 2-[2-[bis(2-oxido-2-oxoethyl)amino]ethyl-(2-oxido-2-oxoethyl)amino]acetate,"InChI=1S/C10H16N2O8.2K.Zn/c13-7(14)3-11(4-8(15)16)1-2-12(5-9(17)18)6-10(19)20;;;/h1-6H2,(H,13,14)(H,15,16)(H,17,18)(H,19,20);;;/q;2*+1;+2/p-4",HALPFWFCTAYLEL-UHFFFAOYSA-J,[K+].[K+].[Zn++].[O-]C(=O)CN(CCN(CC([O-])=O)CC([O-])=O)CC([O-])=O,0.237458201,0.0,1,G1,431.7980000000003,-13.404500000000008,52.90800000000002,23.0,10.0,0.0,13.0,11.0,114.0,0.0,0.0,0.0,0.0,167.0,230.09487824005487,-6.016665005222694e-07,331.05724414428414
A-3694,2-[(butylcarbamoyl)oxy]ethyl prop-2-enoate,"InChI=1S/C10H17NO4/c1-3-5-6-11-10(13)15-8-7-14-9(12)4-2/h4H,2-3,5-8H2,1H3,(H,11,13)",FLKHVLRENDBIDB-UHFFFAOYSA-N,CCCCNC(=O)OCCOC(=O)C=C,-1.6348405969,0.0,1,G1,215.24899999999994,1.2418999999999998,55.41470000000003,15.0,4.0,1.0,5.0,7.0,86.0,0.0,0.0,0.0,0.0,64.63,89.43412386792411,3.3069437701948834,215.46792796387675
A-3696,(4-chlorophenyl)hydrazine,"InChI=1S/C6H7ClN2.ClH/c7-5-1-3-6(9-8)4-2-5;/h1-4,9H,8H2;1H",YQVZREHUWCCHHX-UHFFFAOYSA-N,[H+].[Cl-].NNc1ccc(Cl)cc1,-1.5636654662,0.0,1,G1,179.04999999999998,-1.2578999999999994,40.374100000000006,10.0,2.0,2.0,4.0,1.0,56.0,1.0,0.0,0.0,1.0,38.05,72.23244986927932,0.0,190.27870077930328
A-3700,"3,5-dimethylaniline","InChI=1S/C8H11N/c1-6-3-7(2)5-8(9)4-6/h3-5H,9H2,1-2H3",MKARNSWMMBGSHX-UHFFFAOYSA-N,Cc1cc(C)cc(N)c1,-1.4022004623,0.0,1,G1,121.18299999999999,1.8856399999999998,40.32840000000001,9.0,1.0,1.0,1.0,0.0,48.0,1.0,0.0,0.0,1.0,26.02,55.50117804530289,3.165670309917317,165.32984016148868
A-3701,Sodium; cobalt(3+); 1-[(2-oxido-5-sulfamoylphenyl)diazenyl]naphthalen-2-olate,"InChI=1S/2C16H13N3O4S.Co.Na/c2*17-24(22,23)11-6-8-14(20)13(9-11)18-19-16-12-4-2-1-3-10(12)5-7-15(16)21;;/h2*1-9,20-21H,(H2,17,22,23);;/q;;+3;+1/p-4",PHQDZULYJVQNFM-UHFFFAOYSA-J,[Na+].[Co+3].N[S](=O)(=O)c1ccc([O-])c(c1)N=Nc2c([O-])ccc3ccccc23.N[S](=O)(=O)c4ccc([O-])c(c4)N=Nc5c([O-])ccc6ccccc56,-2.2022038482,0.0,1,G1,764.619,1.1011000000000033,169.66239999999976,50.0,12.0,2.0,18.0,6.0,250.0,6.0,0.0,0.0,6.0,262.0,317.97710293548096,2.5999999179743617e-07,2311.0758640329145
A-3702,"1,3,3-trimethyl-5-oxocyclohexane-1-carbonitrile","InChI=1S/C10H15NO/c1-9(2)4-8(12)5-10(3,6-9)7-11/h4-6H2,1-3H3",JJDFVIDVSCYKDS-UHFFFAOYSA-N,CC1(C)CC(=O)CC(C)(C1)C#N,-1.5404977203999999,0.006737269699999993,2,G3,165.236,2.2954800000000004,46.35900000000002,12.0,2.0,0.0,2.0,0.0,66.0,0.0,1.0,1.0,1.0,40.86,73.57200068538228,2.8553613866654706,249.05441917228063
A-3703,4-(4-chlorophenyl)piperidin-4-ol,"InChI=1S/C11H14ClNO.ClH/c12-10-3-1-9(2-4-10)11(14)5-7-13-8-6-11;/h1-4,13-14H,5-8H2;1H",PXAJMBHRLGKPQV-UHFFFAOYSA-N,[H+].[Cl-].OC1(CCNCC1)c2ccc(Cl)cc2,-1.7207775313,0.0,1,G1,248.15300000000002,-0.9724999999999993,58.56450000000004,15.0,2.0,2.0,4.0,1.0,84.0,1.0,1.0,1.0,2.0,32.26,102.53553632268147,1.1249998042500352e-06,312.2655306452719
A-3706,amino(phenyl)acetic acid,"InChI=1S/C8H9NO2/c9-7(8(10)11)6-4-2-1-3-5-6/h1-5,7H,9H2,(H,10,11)/t7-/m1/s1",ZGUNAGUHMKGQNY-SSDOTTSWSA-N,[NH3+][C@@H](C([O-])=O)c1ccccc1,-1.5082784056999998,0.0,1,G1,151.165,-1.2804999999999995,37.07810000000001,11.0,2.0,1.0,3.0,2.0,58.0,1.0,0.0,0.0,1.0,67.77000000000001,64.45693389754267,2.851177890164404,245.52878773918388
A-3708,octan-1-amine dibutyl sulfanylphosphonate,"InChI=1S/C8H19N.C8H19O3PS/c1-2-3-4-5-6-7-8-9;1-3-5-7-10-12(9,13)11-8-6-4-2/h2-9H2,1H3;3-8H2,1-2H3,(H,9,13)",IVMOXNPAUDFORG-UHFFFAOYSA-N,CCCCCCCCN.CCCCO[P](S)(=O)OCCCC,-1.8796973024,0.007731713299999998,2,G3,355.52500000000015,5.9633000000000065,100.74290000000008,22.0,4.0,2.0,6.0,14.0,136.0,0.0,0.0,0.0,0.0,61.55,143.1527867562025,0.0,235.5454175965933
A-3712,"4-amino-N-tert-butyl-5-oxo-3-(propan-2-yl)-4,5-dihydro-1H-1,2,4-triazole-1-carboxamide","InChI=1S/C10H19N5O2/c1-6(2)7-13-15(9(17)14(7)11)8(16)12-10(3,4)5/h6H,11H2,1-5H3,(H,12,16)",ORFPWVRKFLOQHK-UHFFFAOYSA-N,CC(C)C1=NN(C(=O)NC(C)(C)C)C(=O)N1N,-1.7188473974,0.008861832323373385,3,G5,241.295,0.23820000000000074,64.40910000000002,17.0,6.0,2.0,7.0,1.0,96.0,1.0,0.0,0.0,1.0,94.94,99.57072606011579,3.1237094952308486,477.86618958429005
A-3713,4-(4-hydroxyphenyl)butan-2-one,"InChI=1S/C10H12O2/c1-8(11)2-3-9-4-6-10(12)7-5-9/h4-7,12H,2-3H2,1H3",NJGBTKGETPDVIK-UHFFFAOYSA-N,CC(=O)CCc1ccc(O)cc1,-1.5520409413,0.0,1,G1,164.204,1.9138,47.10880000000003,12.0,2.0,1.0,2.0,3.0,64.0,1.0,0.0,0.0,1.0,37.3,71.84692742932317,2.5298890742894535,261.6719978261822
A-3714,(2H)chloroform,InChI=1S/CHCl3/c2-1(3)4/h1H/i1D,HEDRZPFGACZZDS-MICDWDOJSA-N,ClC(Cl)(Cl)[2H],-1.417811305,0.0,1,G1,120.384101778,1.9864,21.346999999999998,4.0,0.0,0.0,3.0,0.0,26.0,0.0,0.0,0.0,0.0,0.0,41.05402020864239,3.0237157840738176,22.364527976600282
A-3716,"4-amino-3,6-dichloropyridine-2-carboxylic acid","InChI=1S/C6H4Cl2N2O2/c7-3-1-2(9)4(8)5(10-3)6(11)12/h1H,(H2,9,10)(H,11,12)",NIXXQNOQHKNPEJ-UHFFFAOYSA-N,Nc1cc(Cl)nc(C(O)=O)c1Cl,-0.0042500518,0.00729099995,2,G3,207.01600000000002,1.6688,45.628699999999995,12.0,3.0,2.0,6.0,1.0,64.0,1.0,0.0,0.0,1.0,76.21000000000001,77.91817221785593,3.3738590108748694,340.5651246505103
A-3720,"2,2'-({4-[(2-hydroxyethyl)amino]-3-nitrophenyl}imino)diethanol","InChI=1S/C12H19N3O5/c16-6-3-13-11-2-1-10(9-12(11)15(19)20)14(4-7-17)5-8-18/h1-2,9,13,16-18H,3-8H2",MIWUTEVJIISHCP-UHFFFAOYSA-N,OCCNc1ccc(cc1[N+]([O-])=O)N(CCO)CCO,-1.7953855716,0.0,1,G1,285.29999999999995,-0.21000000000000008,75.05650000000003,20.0,7.0,4.0,8.0,9.0,112.0,1.0,0.0,0.0,1.0,119.10000000000001,115.9664286387759,3.0346742293695277,435.10101282974176
A-3721,aluminium(3+) ion potassium tetrafluoride,InChI=1S/Al.FH.K/h;1H;/q+3;;+1/p-1,YPYRDLOVFOAQIR-UHFFFAOYSA-M,[F-].[Al+3].[K+],-1.2699010720000001,0.0,1,G1,85.078,-6.3728,5.754,3.0,0.0,0.0,3.0,0.0,8.0,0.0,0.0,0.0,0.0,0.0,71.89321841165402,-0.0,4.754887502163468
A-3723,tributoxyalumane,"InChI=1S/3C4H9O.Al/c3*1-2-3-4-5;/h3*2-4H2,1H3;/q3*-1;+3",MYWQGROTKMBNKN-UHFFFAOYSA-N,[Al+3].CCCC[O-].CCCC[O-].CCCC[O-],-1.7373354758000001,0.10670854721507166,3,G5,246.3269999999999,0.059600000000002096,65.07900000000005,16.0,3.0,0.0,4.0,6.0,96.0,0.0,0.0,0.0,0.0,69.17999999999999,112.02149084182545,-6.545454500826446e-08,53.01955000865387
A-3725,"2,4-dichlorophenol","InChI=1S/C6H4Cl2O/c7-4-1-2-6(9)5(8)3-4/h1-3,9H",HFZWRUODUSTPEG-UHFFFAOYSA-N,Oc1ccc(Cl)cc1Cl,-1.5589830837,0.018491783099999992,2,G3,163.003,2.699,38.12680000000001,9.0,1.0,1.0,3.0,0.0,48.0,1.0,0.0,0.0,1.0,20.23,62.83216932545633,3.171678030440915,222.29788705001033
A-3730,tetrasodium 8-[[4-[(4-amino-3-sulphonatophenyl)azo]-6-sulphonatonaphthyl]azo]-5-[[6-(benzoylamino)-1-hydroxy-3-sulphonato-2-naphthyl]azo]naphthalene-2-sulphonate,"InChI=1S/C43H30N8O14S4.4Na/c44-34-13-7-26(20-39(34)68(60,61)62)46-47-37-16-14-35(30-11-8-27(21-32(30)37)66(54,55)56)48-49-38-17-15-36(31-12-9-28(22-33(31)38)67(57,58)59)50-51-41-40(69(63,64)65)19-24-18-25(6-10-29(24)42(41)52)45-43(53)23-4-2-1-3-5-23;;;;/h1-22,50H,44H2,(H,45,53)(H,54,55,56)(H,57,58,59)(H,60,61,62)(H,63,64,65);;;;/q;4*+1/p-4/b47-46?,49-48?,51-41+;;;;",WSKMZXPHHJCCDK-HTWUECFASA-J,[Na+].[Na+].[Na+].[Na+].Nc1ccc(cc1[S]([O-])(=O)=O)N=Nc2ccc(N=Nc3ccc(N\N=C/4C(=O)c5ccc(NC(=O)c6ccccc6)cc5C=C4[S]([O-])(=O)=O)c7ccc(cc37)[S]([O-])(=O)=O)c8ccc(cc28)[S]([O-])(=O)=O,-2.3935953584,0.3340837821499999,2,G3,1098.9510000000002,-5.062900000000014,244.89159999999978,73.0,21.0,3.0,30.0,12.0,350.0,7.0,0.0,1.0,8.0,374.82,503.84220138389276,2.8879958362592042e-06,3980.6403671153726
A-3733,methyl 3-methylbut-2-enoate,"InChI=1S/C6H10O2/c1-5(2)4-6(7)8-3/h4H,1-3H3",FZIBCCGGICGWBP-UHFFFAOYSA-N,COC(=O)C=C(C)C,-1.4140004112,0.0,1,G1,114.14399999999999,1.1256,31.446999999999985,8.0,2.0,0.0,2.0,1.0,46.0,0.0,0.0,0.0,0.0,26.3,49.14942589717898,3.7016454312283997,109.69694286392861
A-3735,"Benzoic acid, 2-hydroxy-5-[[4-[[4-[[8-hydroxy-7-[[4-[(8-hydroxy-3,6-disulfo-1-naphthalenyl)azo]-2-methoxy-5-methylphenyl]azo]-3,6-disulfo-1-naphthalenyl]amino]-6-(phenylamino)-1,3,5-triazin-2-yl]amino]phenyl]azo]-, pentasodium salt","InChI=1S/C50H38N12O18S4.5Na/c1-24-14-36(41(80-2)23-35(24)59-61-38-21-32(82(71,72)73)15-25-16-33(83(74,75)76)22-40(64)43(25)38)60-62-45-42(84(77,78)79)18-26-17-31(81(68,69)70)20-37(44(26)46(45)65)53-50-55-48(51-27-6-4-3-5-7-27)54-49(56-50)52-28-8-10-29(11-9-28)57-58-30-12-13-39(63)34(19-30)47(66)67;;;;;/h3-23,63-65H,1-2H3,(H,66,67)(H,68,69,70)(H,71,72,73)(H,74,75,76)(H,77,78,79)(H3,51,52,53,54,55,56);;;;;/q;5*+1/p-5",HTPJPKXFBLUBPI-UHFFFAOYSA-I,[Na+].[Na+].[Na+].[Na+].[Na+].COc1cc(N=Nc2cc(cc3cc(cc(O)c23)[S]([O-])(=O)=O)[S]([O-])(=O)=O)c(C)cc1N=Nc4c(O)c5c(Nc6nc(Nc7ccccc7)nc(Nc8ccc(cc8)N=Nc9ccc(O)c(c9)C([O-])=O)n6)cc(cc5cc4[S]([O-])(=O)=O)[S]([O-])(=O)=O,-2.4833879664,0.0,1,G1,1333.0979999999997,-6.9112800000000245,288.3338000000002,89.0,30.0,6.0,39.0,18.0,430.0,9.0,0.0,0.0,9.0,487.77,614.9145322817291,3.3855945265858e-06,4792.659164267684
A-3737,"3-(3-methyl-5-oxo-4,5-dihydro-1H-pyrazol-1-yl)benzene-1-sulfonic acid","InChI=1S/C10H10N2O4S/c1-7-5-10(13)12(11-7)8-3-2-4-9(6-8)17(14,15)16/h2-4,6H,5H2,1H3,(H,14,15,16)",VEMGKBUHUTYHHA-UHFFFAOYSA-N,CC1=NN(C(=O)C1)c2cccc(c2)[S](O)(=O)=O,-1.7718215434,0.0,1,G1,254.267,1.0459,61.46860000000002,17.0,4.0,1.0,7.0,2.0,90.0,1.0,0.0,1.0,2.0,87.03999999999999,98.300790709937,2.446226843006028,606.48684222829
A-3738,3-methylbut-2-en-1-yl acetate,"InChI=1S/C7H12O2/c1-6(2)4-5-9-7(3)8/h4H,5H2,1-3H3",XXIKYCPRDXIMQM-UHFFFAOYSA-N,CC(=O)OCC=C(C)C,-1.4743213171,0.0,1,G1,128.171,1.5157,36.06399999999999,9.0,2.0,0.0,2.0,2.0,52.0,0.0,0.0,0.0,0.0,26.3,55.51436801157559,3.3050429936972368,120.87784055857759
A-3739,"N,N-dimethyloctanamide","InChI=1S/C10H21NO/c1-4-5-6-7-8-9-10(12)11(2)3/h4-9H2,1-3H3",VHRUBWHAOUIMDW-UHFFFAOYSA-N,CCCCCCCC(=O)N(C)C,-1.6002483409000001,0.0,1,G1,171.284,2.4351000000000003,52.070000000000036,12.0,1.0,0.0,2.0,6.0,72.0,0.0,0.0,0.0,0.0,20.310000000000002,75.94508582764615,3.143237500372718,121.00698692803581
A-3741,heptan-2-one,"InChI=1S/C7H14O/c1-3-4-5-6-7(2)8/h3-6H2,1-2H3",CATSNJVOTSVZJV-UHFFFAOYSA-N,CCCCCC(C)=O,-1.4333383705,0.012272471566661083,3,G5,114.18799999999999,2.1557000000000004,34.822999999999986,8.0,1.0,0.0,1.0,4.0,48.0,0.0,0.0,0.0,0.0,17.07,51.09042581425296,2.822354554248032,66.78707744334402
A-3742,2-methylpentanal,"InChI=1S/C6H12O/c1-3-4-6(2)5-7/h5-6H,3-4H2,1-2H3",FTZILAQGHINQQR-UHFFFAOYSA-N,CCCC(C)C=O,-1.3774493615,0.0073616283999999865,2,G3,100.16099999999999,1.6215,30.13599999999998,7.0,1.0,0.0,1.0,3.0,42.0,0.0,0.0,0.0,0.0,17.07,44.72548369985635,2.9843602328703267,50.14170945007629
A-3744,"hexahydro-2-benzofuran-1,3-dione","InChI=1S/C8H10O3/c9-7-5-3-1-2-4-6(5)8(10)11-7/h5-6H,1-4H2",MUTGBJKUEZFXGO-UHFFFAOYSA-N,O=C1OC(=O)C2CCCCC12,-1.5647364969,0.0,1,G1,154.165,0.8761999999999999,36.547000000000004,11.0,3.0,0.0,3.0,0.0,60.0,0.0,2.0,2.0,2.0,43.370000000000005,64.71877295114176,2.194698933936096,187.3827102814694
A-3746,"2,2-bis[(prop-2-en-1-yloxy)methyl]butan-1-ol","InChI=1S/C12H22O3/c1-4-7-14-10-12(6-3,9-13)11-15-8-5-2/h4-5,13H,1-2,6-11H2,3H3",BDKDHWOPFRTWPP-UHFFFAOYSA-N,CCC(CO)(COCC=C)COCC=C,-1.7182484471000001,0.0,1,G1,214.30499999999995,1.7803,61.84180000000004,15.0,3.0,1.0,3.0,10.0,88.0,0.0,0.0,0.0,0.0,38.69,92.3957324330335,4.031291400763908,157.70604521880495
A-3749,N-butylbutan-1-amine,"InChI=1S/C8H19N/c1-3-5-7-9-8-6-4-2/h9H,3-8H2,1-2H3",JQVDAXLFBXTEQA-UHFFFAOYSA-N,CCCCNCCCC,-1.5039654481,0.038691696578948116,3,G5,129.24699999999999,2.1761999999999997,42.68570000000001,9.0,1.0,1.0,1.0,6.0,56.0,0.0,0.0,0.0,0.0,12.03,58.84370801221385,2.595082706793886,37.832293921787276
A-3751,"(1-methyl-1,2-ethanediyl)bis[oxy(methyl-2,1-ethanediyl)] diacrylate","InChI=1S/C15H24O6/c1-6-14(16)20-12(4)9-18-8-11(3)19-10-13(5)21-15(17)7-2/h6-7,11-13H,1-2,8-10H2,3-5H3",ZDQNWDNMNKSMHI-UHFFFAOYSA-N,CC(COCC(C)OC(=O)C=C)OCC(C)OC(=O)C=C,-1.8755690909,0.0,1,G1,300.35100000000006,1.6434999999999997,77.73500000000004,21.0,6.0,0.0,6.0,11.0,120.0,0.0,0.0,0.0,0.0,71.06,125.24645968312862,3.7259883096187965,352.0730051449225
A-3752,(2R)-2-methyloxirane,"InChI=1S/C3H6O/c1-3-2-4-3/h3H,2H2,1H3/t3-/m1/s1",GOOHAUXETOMSMM-GSVOUGTGSA-N,C[C@@H]1CO1,0.8380333836,0.0,1,G1,58.08,0.4051,15.414000000000001,4.0,1.0,0.0,1.0,0.0,24.0,0.0,1.0,1.0,1.0,12.53,25.576849332600414,2.171098317873574,22.464393446710154
A-3754,2-(dibutylamino)ethan-1-ol,"InChI=1S/C10H23NO/c1-3-5-7-11(9-10-12)8-6-4-2/h12H,3-10H2,1-2H3",IWSZDQRGNFLMJS-UHFFFAOYSA-N,CCCCN(CCO)CCCC,-1.6367385713999998,0.0,1,G1,173.29999999999995,1.8809,53.341800000000035,12.0,2.0,1.0,2.0,8.0,74.0,0.0,0.0,0.0,0.0,23.47,76.57779747979839,3.396054517491409,77.9077646698008
A-3757,sodium 3-[(dimethylcarbamothioyl)sulfanyl]propane-1-sulfonate,"InChI=1S/C6H13NO3S3.Na/c1-7(2)6(11)12-4-3-5-13(8,9)10;/h3-5H2,1-2H3,(H,8,9,10);/q;+1/p-1",ALXDAYUOWUEKLS-UHFFFAOYSA-M,[Na+].CN(C)C(=S)SCCC[S]([O-])(=O)=O,0.17790359960000002,0.0,1,G1,265.35699999999997,-2.4945999999999975,57.924200000000035,14.0,5.0,0.0,8.0,4.0,78.0,0.0,0.0,0.0,0.0,60.44,116.84772117533862,0.0,265.49529453537843
A-3760,"tetrasodium 4-amino-5-hydroxy-6-[(E)-2-{2-methoxy-5-[2-(sulfonatooxy)ethanesulfonyl]phenyl}diazen-1-yl]-3-[(E)-2-{4-[2-(sulfonatooxy)ethanesulfonyl]phenyl}diazen-1-yl]naphthalene-2,7-disulfonate","InChI=1S/C27H27N5O20S6.4Na/c1-50-20-7-6-18(54(36,37)11-9-52-58(47,48)49)14-19(20)30-32-26-22(56(41,42)43)13-15-12-21(55(38,39)40)25(24(28)23(15)27(26)33)31-29-16-2-4-17(5-3-16)53(34,35)10-8-51-57(44,45)46;;;;/h2-7,12-14,30H,8-11,28H2,1H3,(H,38,39,40)(H,41,42,43)(H,44,45,46)(H,47,48,49);;;;/q;4*+1/p-4/b31-29?,32-26+;;;;",VPXBRNMQOUKIMZ-BKYDQJEUSA-J,[Na+].[Na+].[Na+].[Na+].COc1ccc(cc1N\N=C/2C(=O)c3c(N)c(N=Nc4ccc(cc4)[S](=O)(=O)CCO[S]([O-])(=O)=O)c(cc3C=C2[S]([O-])(=O)=O)[S]([O-])(=O)=O)[S](=O)(=O)CCO[S]([O-])(=O)=O,-0.41610448229999997,0.0,1,G1,1021.8580000000004,-12.33560000000002,190.8959999999998,62.0,25.0,2.0,35.0,17.0,316.0,3.0,0.0,1.0,4.0,416.96999999999997,442.67573044194955,9.302489688819953e-06,2969.059235337072
A-3762,3-amino-4-methylbenzamide,"InChI=1S/C8H10N2O/c1-5-2-3-6(8(10)11)4-7(5)9/h2-4H,9H2,1H3,(H2,10,11)",VYBKAZXQKUFAHG-UHFFFAOYSA-N,Cc1ccc(cc1N)C(N)=O,-0.5767319197,0.0,1,G1,150.18099999999998,0.6761200000000003,44.109300000000005,11.0,2.0,2.0,3.0,1.0,58.0,1.0,0.0,0.0,1.0,69.11,65.00259084235937,3.1515496683060507,294.1435742307893
A-3765,"1,3-thiazol-5-ylmethanol","InChI=1S/C4H5NOS/c6-2-4-1-5-3-7-4/h1,3,6H,2H2",WKBQQWDVVHGWDB-UHFFFAOYSA-N,OCc1scnc1,0.5257355357,0.0,1,G1,115.15699999999998,0.6354,28.036799999999996,7.0,3.0,1.0,3.0,1.0,38.0,1.0,0.0,0.0,1.0,33.120000000000005,45.45059023744759,2.762608341443769,126.24573483855963
A-3768,"(2S,4R)-1-acetyl-4-hydroxypyrrolidine-2-carboxylic acid","InChI=1S/C7H11NO4/c1-4(9)8-3-5(10)2-6(8)7(11)12/h5-6,10H,2-3H2,1H3,(H,11,12)/p-1/t5-,6-/m0/s1",BAPRUDZDYCKSOQ-WDSKDSINSA-M,CC(=O)N1C[C@@H](O)C[C@H]1C([O-])=O,0.3449927217,0.0,1,G1,172.15999999999997,-2.281999999999999,36.8058,12.0,4.0,1.0,5.0,1.0,68.0,0.0,1.0,1.0,1.0,80.67000000000002,69.59441793536288,2.7198223880133643,193.45191553287324