ID,Name,InChI,InChIKey,SMILES,Solubility,SD,Ocurrences,Group,MolWt,MolLogP,MolMR,HeavyAtomCount,NumHAcceptors,NumHDonors,NumHeteroatoms,NumRotatableBonds,NumValenceElectrons,NumAromaticRings,NumSaturatedRings,NumAliphaticRings,RingCount,TPSA,LabuteASA,BalabanJ,BertzCT
A-3934,4-chloroaniline,"InChI=1S/C6H6ClN/c7-5-1-3-6(8)4-2-5/h1-4H,8H2",QSNSCYSYFYORTR-UHFFFAOYSA-N,Nc1ccc(Cl)cc1,-1.628640918,0.06597233096002532,4,G5,127.574,1.9222,35.86440000000002,8.0,1.0,1.0,2.0,0.0,42.0,1.0,0.0,0.0,1.0,26.02,53.07456004339135,3.0324555320336755,147.38833891467198
A-3935,5-methylheptan-3-one,"InChI=1S/C8H16O/c1-4-7(3)6-8(9)5-2/h7H,4-6H2,1-3H3",PSBKJPTZCVYXSD-UHFFFAOYSA-N,CCC(C)CC(=O)CC,-1.630817582,0.0,1,G1,128.21499999999997,2.401700000000001,39.37,9.0,1.0,0.0,1.0,4.0,54.0,0.0,0.0,0.0,0.0,17.07,57.455367928649565,3.3430002458353805,86.56842503028857
A-3937,aluminum tris(4-oxopent-2-en-2-olate),"InChI=1S/3C5H8O2.Al/c3*1-4(6)3-5(2)7;/h3*3,6H,1-2H3;/q;;;+3/p-3",KILURZWTCGSYRE-UHFFFAOYSA-K,[Al+3].CC([O-])=CC(C)=O.CC([O-])=CC(C)=O.CC([O-])=CC(C)=O,-2.0338377463999997,0.0,1,G1,324.309,-0.862299999999999,79.06800000000003,22.0,6.0,0.0,7.0,3.0,120.0,0.0,0.0,0.0,0.0,120.38999999999999,141.53207438859383,-1.07999999274e-07,368.3806001546932
A-3939,chlorodifluoromethane,InChI=1S/CHClF2/c2-1(3)4/h1H,VOPWNXZWBYDODV-UHFFFAOYSA-N,FC(F)Cl,-1.4597341592,0.017332920400000007,2,G3,86.468,1.4478,11.857000000000001,4.0,0.0,0.0,3.0,0.0,26.0,0.0,0.0,0.0,0.0,0.0,27.37358806056369,2.3237900077244498,10.75488750216347
A-3941,"2-[[4,5-dihydro-3-methyl-5-oxo-1-[4-[[2-(sulphooxy)ethyl]sulphonyl]phenyl]-1H-pyrazol-4-yl]azo]naphthalene-1,5-disulphonic acid, potassium sodium salt","InChI=1S/C22H22N4O13S4.K.Na/c1-13-20(22(27)26(25-13)14-5-7-15(8-6-14)40(28,29)12-11-39-43(36,37)38)24-23-18-10-9-16-17(21(18)42(33,34)35)3-2-4-19(16)41(30,31)32;;/h2-10,20,22,27H,11-12H2,1H3,(H,30,31,32)(H,33,34,35)(H,36,37,38);;/q;2*+1/p-2",GARUHJAOVJVADA-UHFFFAOYSA-L,[Na+].[K+].CC1=NN(C(O)C1N=Nc2ccc3c(cccc3[S]([O-])(=O)=O)c2[S](O)(=O)=O)c4ccc(cc4)[S](=O)(=O)CCO[S]([O-])(=O)=O,-0.3928398265,0.0,1,G1,738.7730000000003,-5.0840999999999905,145.76859999999982,45.0,16.0,2.0,23.0,10.0,232.0,3.0,0.0,1.0,4.0,272.68999999999994,322.39010699867794,3.5266618385583013e-06,2093.7803774411204
A-3943,"but-2-yne-1,4-diol","InChI=1S/C4H6O2/c5-3-1-2-4-6/h5-6H,3-4H2",DLDJFQGPPSQZKI-UHFFFAOYSA-N,OCC#CCO,1.5363390032,0.4493883381175167,3,G5,86.08999999999999,-1.0256,21.947599999999994,6.0,2.0,2.0,2.0,0.0,34.0,0.0,0.0,0.0,0.0,40.46,36.42177026727067,2.8986676180251862,59.35260810785708
A-3944,"trisodium 8-{[(2E)-4-chloro-6-[ethyl(phenyl)amino]-1,2-dihydro-1,3,5-triazin-2-ylidene]amino}-2-[(E)-2-(1-sulfonaphthalen-2-yl)diazen-1-yl]-3,6-disulfonatonaphthalen-1-olate","InChI=1S/C31H24ClN7O10S3.3Na/c1-2-39(19-9-4-3-5-10-19)31-35-29(32)34-30(36-31)33-23-16-20(50(41,42)43)14-18-15-24(51(44,45)46)26(27(40)25(18)23)38-37-22-13-12-17-8-6-7-11-21(17)28(22)52(47,48)49;;;/h3-16,37H,2H2,1H3,(H,41,42,43)(H,44,45,46)(H,47,48,49)(H,33,34,35,36);;;/q;3*+1/p-3/b38-26+;;;",YTFISNAZHFSCHA-AWMFZBAVSA-K,[Na+].[Na+].[Na+].CCN(c1ccccc1)c2nc(Cl)nc(Nc3cc(cc4C=C(\C(=N/Nc5ccc6ccccc6c5[S]([O-])(=O)=O)C(=O)c34)[S]([O-])(=O)=O)[S]([O-])(=O)=O)n2,-0.4592355493,0.0,1,G1,852.1720000000004,-5.049499999999996,186.6204999999998,55.0,17.0,2.0,24.0,10.0,268.0,5.0,0.0,1.0,6.0,266.99999999999994,385.75342448162746,2.7074971167399943e-06,2709.690951383922
A-3949,"sodium 3-[2-(1,5-dioxonaphthalen-2-yl)hydrazinyl]-4-hydroxybenzenesulfonate","InChI=1S/C16H12N2O6S.Na/c19-14-3-1-2-11-10(14)5-6-12(16(11)21)17-18-13-8-9(25(22,23)24)4-7-15(13)20;/h1-8,17-18,20H,(H,22,23,24);/q;+1/p-1",GJJYQFJLFUEXMR-UHFFFAOYSA-M,[Na+].Oc1ccc(cc1NNC2=CC=C3C(=O)C=CC=C3C2=O)[S]([O-])(=O)=O,-0.9011960035,0.0,1,G1,382.3290000000001,-2.3248999999999986,86.2314,26.0,8.0,3.0,10.0,4.0,128.0,1.0,0.0,2.0,3.0,135.63,170.53992380015478,2.4299975304025683e-06,1021.175607841352
A-3950,"N,N-bis(carboxymethyl)-L-glutamic acid","InChI=1S/C9H13NO8/c11-6(12)2-1-5(9(17)18)10(3-7(13)14)4-8(15)16/h5H,1-4H2,(H,11,12)(H,13,14)(H,15,16)(H,17,18)",VCVKIIDXVWEWSZ-UHFFFAOYSA-N,OC(=O)CCC(N(CC(O)=O)CC(O)=O)C(O)=O,0.043603803899999995,0.079160517,2,G3,263.202,-1.2243999999999988,55.13820000000001,18.0,5.0,4.0,9.0,9.0,102.0,0.0,0.0,0.0,0.0,152.44,101.24164502216492,4.828573742534609,336.476798218004
A-3954,isopropenyl acetate,"InChI=1S/C5H8O2/c1-4(2)7-5(3)6/h1H2,2-3H3",HETCEOQFVDFGSY-UHFFFAOYSA-N,CC(=C)OC(C)=O,-0.5277513782,0.0,1,G1,100.11699999999999,1.0831,26.57999999999999,7.0,2.0,0.0,2.0,1.0,40.0,0.0,0.0,0.0,0.0,26.3,42.784483782782374,3.318019590380522,82.25327665163482
A-3955,"1,2,3,6-tetrahydrophthalic anhydride","InChI=1S/C8H8O3/c9-7-5-3-1-2-4-6(5)8(10)11-7/h1-2,5-6H,3-4H2",KMOUUZVZFBCRAM-UHFFFAOYSA-N,O=C1OC(=O)C2CC=CCC12,-0.7139217719,0.0,1,G1,152.14899999999997,0.6521999999999999,36.453,11.0,3.0,0.0,3.0,0.0,58.0,0.0,1.0,2.0,2.0,43.370000000000005,64.02916991895749,2.275089056121243,217.72172564618361
A-3956,"3,5-dimethyl-1H-pyrazole","InChI=1S/C5H8N2/c1-4-3-5(2)7-6-4/h3H,1-2H3,(H,6,7)",SDXAWLJRERMRKF-UHFFFAOYSA-N,Cc1[nH]nc(C)c1,-0.5204744976,0.0,1,G1,96.13299999999998,1.02654,28.061699999999995,7.0,1.0,1.0,2.0,0.0,38.0,1.0,0.0,0.0,1.0,28.68,42.55854931865572,3.0420027674072885,138.36869300355525
A-3961,dipotassium 2-dodecanamidoacetate 2-tetradecanamidoacetate,"InChI=1S/C16H31NO3.C14H27NO3.2K/c1-2-3-4-5-6-7-8-9-10-11-12-13-15(18)17-14-16(19)20;1-2-3-4-5-6-7-8-9-10-11-13(16)15-12-14(17)18;;/h2-14H2,1H3,(H,17,18)(H,19,20);2-12H2,1H3,(H,15,16)(H,17,18);;/q;;2*+1/p-2",AFUMULMCCJZCMZ-UHFFFAOYSA-L,[K+].[K+].CCCCCCCCCCCCCC(=O)NCC([O-])=O.CCCCCCCCCCCC(=O)NCC([O-])=O,-0.3429717,0.0,1,G1,618.9820000000003,-1.6649999999999934,148.95539999999988,40.0,6.0,2.0,10.0,26.0,224.0,0.0,0.0,0.0,0.0,138.45999999999998,329.50781316136863,-3.1009089281511674e-07,594.5462499003843
A-3964,"(8R,9S,10R,14S)-13-ethyl-1,2,6,7,8,9,10,11,12,14,15,16-dodecahydrocyclopenta[a]phenanthrene-3,17-dione","InChI=1S/C19H26O2/c1-2-19-10-9-15-14-6-4-13(20)11-12(14)3-5-16(15)17(19)7-8-18(19)21/h11,14-17H,2-10H2,1H3/t14-,15+,16+,17-,19?/m0/s1",SBLHOJQRZNGHLQ-YLVOMZDISA-N,CCC12CC[C@H]3[C@@H](CCC4=CC(=O)CC[C@H]34)[C@@H]1CCC2=O,-3.7327198893,0.0,1,G1,286.415,4.087400000000003,81.71700000000004,21.0,2.0,0.0,2.0,1.0,114.0,0.0,3.0,4.0,4.0,34.14,126.91832564075489,1.6501278527098846,517.6593951806237
A-3965,2-amino-3-(phosphonooxy)propanoic acid,"InChI=1S/C3H8NO6P/c4-2(3(5)6)1-10-11(7,8)9/h2H,1,4H2,(H,5,6)(H2,7,8,9)/t2-/m0/s1",BZQFBWGGLXLEPQ-REOHCLBHSA-N,N[C@@H](CO[P](O)(O)=O)C(O)=O,-0.8149408723,0.0,1,G1,185.07199999999997,-1.4924000000000002,33.607299999999995,11.0,4.0,4.0,8.0,4.0,66.0,0.0,0.0,0.0,0.0,130.08,62.01640521424924,3.720984563822843,186.2664170552278
A-3967,"Benzenesulfonic acid, mono-C11-13-branched alkyl derivs., sodium salts","InChI=1S/C18H30O3S.Na/c1-3-5-9-16(4-2)10-7-6-8-11-17-12-14-18(15-13-17)22(19,20)21;/h12-16H,3-11H2,1-2H3,(H,19,20,21);/q;+1/p-1",HLZPFMSGWIVXAK-UHFFFAOYSA-M,[Na+].CCCCC(CC)CCCCCc1ccc(cc1)[S]([O-])(=O)=O,-0.0969056512,0.0,1,G1,348.48400000000004,1.913999999999999,89.88320000000007,23.0,3.0,0.0,5.0,11.0,126.0,1.0,0.0,0.0,1.0,57.199999999999996,163.85274412500888,4.839994607806221e-06,511.5731649013525
A-3968,"hexasodium 2-({4-[bis(2-hydroxyethyl)amino]-6-({4-[(E)-2-[4-({4-[bis(2-hydroxyethyl)amino]-6-[(2,5-disulfonatophenyl)amino]-1,3,5-triazin-2-yl}amino)-2-sulfonatophenyl]ethenyl]-3-sulfonatophenyl}amino)-1,3,5-triazin-2-yl}amino)benzene-1,4-disulfonate","InChI=1S/C40H44N12O22S6.6Na/c53-15-11-51(12-16-54)39-47-35(45-37(49-39)43-29-21-27(75(57,58)59)7-9-31(29)77(63,64)65)41-25-5-3-23(33(19-25)79(69,70)71)1-2-24-4-6-26(20-34(24)80(72,73)74)42-36-46-38(50-40(48-36)52(13-17-55)14-18-56)44-30-22-28(76(60,61)62)8-10-32(30)78(66,67)68;;;;;;/h1-10,19-22,53-56H,11-18H2,(H,57,58,59)(H,60,61,62)(H,63,64,65)(H,66,67,68)(H,69,70,71)(H,72,73,74)(H2,41,43,45,47,49)(H2,42,44,46,48,50);;;;;;/q;6*+1/p-6/b2-1+;;;;;;",ZECOZQHKQDLCBT-IRTUOLCXSA-H,[Na+].[Na+].[Na+].[Na+].[Na+].[Na+].OCCN(CCO)c1nc(Nc2ccc(\C=C\c3ccc(Nc4nc(Nc5cc(ccc5[S]([O-])(=O)=O)[S]([O-])(=O)=O)nc(n4)N(CCO)CCO)cc3[S]([O-])(=O)=O)c(c2)[S]([O-])(=O)=O)nc(Nc6cc(ccc6[S]([O-])(=O)=O)[S]([O-])(=O)=O)n1,-0.6924056004000001,0.0,1,G1,1369.1480000000001,-19.767999999999937,268.0291999999999,86.0,34.0,8.0,46.0,26.0,432.0,6.0,0.0,0.0,6.0,556.06,624.1428450274161,1.2041651132779951e-05,3827.925067823204
A-3969,dicaesium(1+) ion carbonate,"InChI=1S/CH2O3.2Cs/c2-1(3)4;;/h(H2,2,3,4);;/q;2*+1/p-2",FJDQFPXHSGXQBY-UHFFFAOYSA-L,[Cs+].[Cs+].[O-]C([O-])=O,0.9300687552,0.0,1,G1,325.8180000000001,-8.439,5.396,6.0,3.0,0.0,5.0,0.0,24.0,0.0,0.0,0.0,0.0,63.19,153.09881892225653,-4.4999999250000016e-08,31.774437510817343
A-3975,pivalic acid,"InChI=1S/C5H10O2/c1-5(2,3)4(6)7/h1-3H3,(H,6,7)",IUGYQRQAERSCNH-UHFFFAOYSA-N,CC(C)(C)C(O)=O,-0.5635618856,0.05456905719999999,2,G3,102.13299999999998,1.1171,27.090799999999987,7.0,1.0,1.0,2.0,0.0,42.0,0.0,0.0,0.0,0.0,37.3,43.15477533765576,3.7911184170869663,78.57116899294724
A-3976,"1-(2-hydroxyethyl)-2,2,6,6-tetramethylpiperidin-4-ol","InChI=1S/C11H23NO2/c1-10(2)7-9(14)8-11(3,4)12(10)5-6-13/h9,13-14H,5-8H2,1-4H3",STEYNUVPFMIUOY-UHFFFAOYSA-N,CC1(C)CC(O)CC(C)(C)N1CCO,-0.8598205529,0.0,1,G1,201.30999999999997,0.9925999999999999,57.19060000000005,14.0,3.0,2.0,3.0,2.0,84.0,0.0,1.0,1.0,1.0,43.7,86.7311421928618,2.8475214373902036,183.46421232383727
A-3977,diethyl(prop-2-yn-1-yl)amine,"InChI=1S/C7H13N/c1-4-7-8(5-2)6-3/h1H,5-7H2,2-3H3",JZJXKEWVUBVOEH-UHFFFAOYSA-N,CCN(CC)CC#C,-0.6020131225,0.0,1,G1,111.18799999999999,0.9614,36.621,8.0,1.0,0.0,1.0,3.0,46.0,0.0,0.0,0.0,0.0,3.24,51.687962776271846,3.248371276696983,76.87784055857759
A-3978,cobalt(2+) hydrogen citrate,"InChI=1S/C6H8O7.Co/c7-3(8)1-6(13,5(11)12)2-4(9)10;/h13H,1-2H2,(H,7,8)(H,9,10)(H,11,12);/q;+2/p-2",FDTVUHQHHXTXLW-UHFFFAOYSA-L,[Co++].OC(=O)CC(O)(CC([O-])=O)C([O-])=O,-0.954573972,0.0,1,G1,249.03999999999996,-3.920399999999999,31.833599999999993,14.0,6.0,2.0,8.0,5.0,81.0,0.0,0.0,0.0,0.0,137.79,88.54549639019051,0.0,232.56457479341313
A-3979,Cobaltous citrate,"InChI=1S/2C6H8O7.3Co/c2*7-3(8)1-6(13,5(11)12)2-4(9)10;;;/h2*13H,1-2H2,(H,7,8)(H,9,10)(H,11,12);;;/q;;3*+2/p-6",IEXXNGVQCLMTKU-UHFFFAOYSA-H,[Co++].[Co++].[Co++].OC(CC([O-])=O)(CC([O-])=O)C([O-])=O.OC(CC([O-])=O)(CC([O-])=O)C([O-])=O,-1.3025954999,0.0,1,G1,554.9970000000005,-10.512700000000002,58.40960000000002,29.0,14.0,2.0,17.0,10.0,169.0,0.0,0.0,0.0,0.0,281.23999999999995,192.04254850193985,-1.1999999757656255e-07,520.6497731257494
A-3985,barium(2+) ion dichloride,InChI=1S/Ba.2ClH.2H2O/h;2*1H;2*1H2/q+2;;;;/p-2,PWHCIQQGOQTFAE-UHFFFAOYSA-L,O.O.[Cl-].[Cl-].[Ba++],0.0418928153,0.005578401050000004,2,G3,244.264,-8.0222,12.981599999999998,5.0,0.0,0.0,5.0,0.0,32.0,0.0,0.0,0.0,0.0,63.0,83.2123116801542,-0.0,7.609640474436813
A-3986,"2-bromo-2-nitropropane-1,3-diol","InChI=1S/C3H6BrNO4/c4-3(1-6,2-7)5(8)9/h6-7H,1-2H2",LVDKZNITIUWNER-UHFFFAOYSA-N,OCC(Br)(CO)[N+]([O-])=O,0.1271308568,0.0299312757092958,4,G5,199.988,-0.6611,32.824,9.0,4.0,2.0,6.0,3.0,54.0,0.0,0.0,0.0,0.0,83.6,59.578126089155944,4.090340515801205,112.38037532843026
A-3987,copper(+1) cation sulfide,InChI=1S/2Cu.S/q2*+1;-2,AQMRBJNRFUQADD-UHFFFAOYSA-N,[SH--].[Cu+].[Cu+],-4.2045730411,0.0,1,G1,160.167,-0.2751,8.76,3.0,0.0,0.0,3.0,0.0,29.0,0.0,0.0,0.0,0.0,0.0,47.75257275931267,-0.0,2.7548875021634682
A-3988,2-methyl-1H-imidazole,"InChI=1S/C4H6N2/c1-4-5-2-3-6-4/h2-3H,1H3,(H,5,6)",LXBGSDVWAMZHDD-UHFFFAOYSA-N,Cc1[nH]ccn1,0.5121363664999999,0.0,1,G1,82.10600000000001,0.7181199999999999,23.324699999999993,6.0,1.0,1.0,2.0,0.0,32.0,1.0,0.0,0.0,1.0,28.68,36.22515363585439,3.049648321313926,109.10850553448522
A-3989,Sodium trimetaphosphate,"InChI=1S/3Na.H3O9P3/c;;;1-10(2)7-11(3,4)9-12(5,6)8-10/h;;;(H,1,2)(H,3,4)(H,5,6)/q3*+1;/p-3",UGTZMIPZNRIWHX-UHFFFAOYSA-K,[Na+].[Na+].[Na+].[O-][P]1(=O)O[P]([O-])(=O)O[P]([O-])(=O)O1,-0.062309467,0.0,1,G1,305.88300000000004,-10.533000000000001,26.074499999999997,15.0,9.0,0.0,15.0,0.0,72.0,0.0,1.0,1.0,1.0,148.08,150.98084559657352,-4.79999961800003e-07,265.1905082706798
A-3991,oxoselane oxide,InChI=1S/O2Se/c1-3-2,JPJALAQPGMAKDF-UHFFFAOYSA-N,O=[Se]=O,1.3647745033,0.0,1,G1,110.95799999999998,-0.6184000000000001,7.126999999999999,3.0,2.0,0.0,3.0,0.0,18.0,0.0,0.0,0.0,0.0,34.14,23.39474668114611,3.2659863237109046,23.774437510817343
A-3992,"1,3-dioxepane",InChI=1S/C5H10O2/c1-2-4-7-5-6-3-1/h1-5H2,CZLMRJZAHXYRIX-UHFFFAOYSA-N,C1CCOCOC1,0.4107896597,0.028582753100000025,2,G3,102.133,0.7709,26.00499999999999,7.0,2.0,0.0,2.0,0.0,42.0,0.0,1.0,1.0,1.0,18.46,43.42027879090051,2.0416666666666665,25.693328434369647
A-3994,"pentasodium 4-amino-6-[(E)-2-{5-[(4-amino-6-chloro-1,3,5-triazin-2-yl)amino]-2-sulfonatophenyl}diazen-1-yl]-3-[(E)-2-(2,5-disulfonatophenyl)diazen-1-yl]-5-hydroxynaphthalene-2,7-disulfonate","InChI=1S/C25H19ClN10O16S5.5Na/c26-23-30-24(28)32-25(31-23)29-10-1-3-14(54(41,42)43)12(7-10)33-36-21-17(57(50,51)52)6-9-5-16(56(47,48)49)20(19(27)18(9)22(21)37)35-34-13-8-11(53(38,39)40)2-4-15(13)55(44,45)46;;;;;/h1-8,33H,27H2,(H,38,39,40)(H,41,42,43)(H,44,45,46)(H,47,48,49)(H,50,51,52)(H3,28,29,30,31,32);;;;;/q;5*+1/p-5/b35-34?,36-21+;;;;;",RAZBZSZIUMDHTB-WZTFRFCZSA-I,[Na+].[Na+].[Na+].[Na+].[Na+].Nc1nc(Cl)nc(Nc2ccc(c(N\N=C/3C(=O)c4c(N)c(N=Nc5cc(ccc5[S]([O-])(=O)=O)[S]([O-])(=O)=O)c(cc4C=C3[S]([O-])(=O)=O)[S]([O-])(=O)=O)c2)[S]([O-])(=O)=O)n1,-0.5908005839,0.0,1,G1,1021.1790000000005,-14.964700000000004,185.36169999999996,62.0,26.0,4.0,37.0,11.0,302.0,4.0,0.0,1.0,5.0,454.91999999999996,465.7926725549151,7.441994355613457e-06,3109.0422841970167
A-3996,4-methylpent-3-en-2-one,"InChI=1S/C6H10O/c1-5(2)4-6(3)7/h4H,1-3H3",SHOJXDKTYKFBRD-UHFFFAOYSA-N,CC(C)=CC(C)=O,-0.560826234,0.014913116999999976,2,G3,98.145,1.5416,30.111999999999988,7.0,1.0,0.0,1.0,1.0,40.0,0.0,0.0,0.0,0.0,17.07,44.035880667672096,3.679228031962392,96.74764726768919
A-3997,"disodium 3-[(E)-2-(5-chloro-2-hydroxyphenyl)diazen-1-yl]-4,5-dihydroxynaphthalene-2,7-disulfonate","InChI=1S/C16H11ClN2O9S2.2Na/c17-8-1-2-11(20)10(5-8)18-19-15-13(30(26,27)28)4-7-3-9(29(23,24)25)6-12(21)14(7)16(15)22;;/h1-6,18,20-21H,(H,23,24,25)(H,26,27,28);;/q;2*+1/p-2/b19-15+;;",RAIRBURLMTXYPH-WTBAQZMLSA-L,[Na+].[Na+].Oc1ccc(Cl)cc1N\N=C/2C(=O)c3c(O)cc(cc3C=C2[S]([O-])(=O)=O)[S]([O-])(=O)=O,-1.2898086582,0.0,1,G1,518.8200000000003,-4.7861999999999965,102.24919999999999,32.0,11.0,3.0,16.0,4.0,158.0,2.0,0.0,1.0,3.0,196.32,230.8054793839598,2.55999846263429e-06,1374.1180849969032
A-3998,C.i.Basic Violet 11,"InChI=1S/C30H35N2O3.ClH/c1-6-31(7-2)21-15-17-25-27(19-21)35-28-20-22(32(8-3)9-4)16-18-26(28)29(25)23-13-11-12-14-24(23)30(33)34-10-5;/h11-20H,6-10H2,1-5H3;1H/q+1;/p-1",UOKMUTMXUMSRKM-UHFFFAOYSA-M,[Cl-].CCOC(=O)c1ccccc1c2c3ccc(cc3[o+]c4cc(ccc24)N(CC)CC)N(CC)CC,-1.2801897062,0.0,1,G1,507.0740000000004,4.407200000000005,146.64149999999984,36.0,4.0,0.0,6.0,9.0,190.0,4.0,0.0,0.0,4.0,44.080000000000005,219.61883439391,3.6099946770791284e-06,1277.113936512084
A-3999,4-chlorophenol,"InChI=1S/C6H5ClO/c7-5-1-3-6(8)4-2-5/h1-4,8H",WXNZTHHGJRFXKQ-UHFFFAOYSA-N,Oc1ccc(Cl)cc1,-0.6876597172,0.022773502848029564,5,G5,128.558,2.0456,33.1168,8.0,1.0,1.0,2.0,0.0,42.0,1.0,0.0,0.0,1.0,20.23,52.52890309857465,3.0324555320336755,147.38833891467198
A-4000,methacrylonitrile,"InChI=1S/C4H5N/c1-4(2)3-5/h1H2,2H3",GYCMBHHDWRMZGG-UHFFFAOYSA-N,CC(=C)C#N,-0.40670851659999996,0.02428698288818509,4,G5,67.09100000000001,1.08608,20.426999999999992,5.0,1.0,0.0,1.0,0.0,26.0,0.0,0.0,0.0,0.0,23.79,31.537054020303835,3.348800763644439,76.13896548741764
A-4001,2-methylphenol,"InChI=1S/C7H8O/c1-6-4-2-3-5-7(6)8/h2-5,8H,1H3",QWVGKYWNOKOFNN-UHFFFAOYSA-N,Cc1ccccc1O,-0.6190130172999999,0.00851666965000003,2,G3,108.13999999999999,1.70062,32.843799999999995,8.0,1.0,1.0,1.0,0.0,42.0,1.0,0.0,0.0,1.0,20.23,48.59057898608958,3.134861511345448,160.49662946459569
A-4004,dilithium(1+) ion sulfate,"InChI=1S/2Li.H2O4S/c;;1-5(2,3)4/h;;(H2,1,2,3,4)/q2*+1;/p-2",INHCSSUBVCNVSK-UHFFFAOYSA-L,[Li+].[Li+].[O-][S]([O-])(=O)=O,0.3921242805,0.058959133252658225,3,G5,109.945,-7.329999999999999,10.4746,7.0,4.0,0.0,7.0,0.0,32.0,0.0,0.0,0.0,0.0,80.25999999999999,65.60131360359244,-7.999999835000003e-08,92.8582023226588
A-4006,dimethyl[2-[(2-methyl-1-oxoallyl)oxy]ethyl](3-sulphopropyl)ammonium hydroxide,"InChI=1S/C11H21NO5S/c1-10(2)11(13)17-8-7-12(3,4)6-5-9-18(14,15)16/h1,5-9H2,2-4H3",BCAIDFOKQCVACE-UHFFFAOYSA-N,CC(=C)C(=O)OCC[N+](C)(C)CCC[S]([O-])(=O)=O,0.9627399696,0.0,1,G1,279.358,0.11740000000000039,66.79660000000004,18.0,5.0,0.0,7.0,8.0,106.0,0.0,0.0,0.0,0.0,83.5,108.57257763600131,3.9372874598037435,399.6566348177699
A-4009,"disodium 2-{4-[(2E)-2-cyano-3-{4-[methyl(2-sulfonatoethyl)amino]phenyl}prop-2-enamido]phenyl}-6-methyl-1,3-benzothiazole-7-sulfonate","InChI=1S/C27H24N4O7S3.2Na/c1-17-3-12-23-24(25(17)41(36,37)38)39-27(30-23)19-6-8-21(9-7-19)29-26(32)20(16-28)15-18-4-10-22(11-5-18)31(2)13-14-40(33,34)35;;/h3-12,15H,13-14H2,1-2H3,(H,29,32)(H,33,34,35)(H,36,37,38);;/q;2*+1/p-2/b20-15+;;",RXTSUBROMXGEJZ-ZAWKPCBGSA-L,[Na+].[Na+].CN(CC[S]([O-])(=O)=O)c1ccc(cc1)/C=C(C#N)/C(=O)Nc2ccc(cc2)c3sc4c(ccc(C)c4[S]([O-])(=O)=O)n3,-0.415949942,0.0,1,G1,656.6750000000002,-2.289099999999994,154.25209999999973,43.0,11.0,1.0,16.0,9.0,212.0,4.0,0.0,0.0,4.0,183.41999999999996,297.2650700985358,3.2266622744951074e-06,1920.0511231770815
A-4017,2-phenoxyethan-1-ol,"InChI=1S/C8H10O2/c9-6-7-10-8-4-2-1-3-5-8/h1-5,9H,6-7H2",QCDWFXQBSFUVSP-UHFFFAOYSA-N,OCCOc1ccccc1,-0.742461176,0.019064400026258144,4,G5,138.16599999999997,1.0576999999999999,39.02280000000002,10.0,2.0,1.0,2.0,3.0,54.0,1.0,0.0,0.0,1.0,29.46,60.06906632999306,2.4265223465879537,171.872282370036
A-4020,potassium hydrogen oxalate,"InChI=1S/C2H2O4.K/c3-1(4)2(5)6;/h(H,3,4)(H,5,6);/q;+1/p-1",JMTCDHVHZSGGJA-UHFFFAOYSA-M,[K+].OC(=O)C([O-])=O,-0.7096904801,0.0,1,G1,128.124,-5.1751000000000005,12.6428,7.0,3.0,1.0,5.0,0.0,34.0,0.0,0.0,0.0,0.0,77.43,81.93826954206831,0.0,75.69058447171099
A-4023,"7-acetamido-4-hydroxy-3-[[4-[[2-(sulphooxy)ethyl]sulphonyl]phenyl]azo]naphthalene-2-sulphonic acid, sodium salt","InChI=1S/C20H19N3O11S3.2Na/c1-12(24)21-15-4-7-17-13(10-15)11-18(36(28,29)30)19(20(17)25)23-22-14-2-5-16(6-3-14)35(26,27)9-8-34-37(31,32)33;;/h2-7,10-11,22H,8-9H2,1H3,(H,21,24)(H,28,29,30)(H,31,32,33);;/q;2*+1/p-2/b23-19-;;",RVERFAMJEQKFQK-HHUIZHIGSA-L,[Na+].[Na+].CC(=O)Nc1ccc2C(=O)C(=N/Nc3ccc(cc3)[S](=O)(=O)CCO[S]([O-])(=O)=O)\C(=Cc2c1)[S]([O-])(=O)=O,-0.39639348950000003,0.0,1,G1,617.5470000000004,-5.545999999999991,127.95210000000002,39.0,13.0,2.0,19.0,9.0,198.0,2.0,0.0,1.0,3.0,228.32999999999996,268.0328458812757,3.8024959399420567e-06,1653.92433911049
A-4024,N'-acetylacetohydrazide,"InChI=1S/C4H8N2O2/c1-3(7)5-6-4(2)8/h1-2H3,(H,5,7)(H,6,8)",ZLHNYIHIHQEHJQ-UHFFFAOYSA-N,CC(=O)NNC(C)=O,0.3286681761,0.055787387549999984,2,G3,116.11999999999999,-0.8264,27.633399999999995,8.0,2.0,2.0,4.0,0.0,46.0,0.0,0.0,0.0,0.0,58.2,47.226981958557964,3.1818458670936187,96.60593781761291
A-4025,ethyl 2-cyclohexylpropanoate,"InChI=1S/C11H20O2/c1-3-13-11(12)9(2)10-7-5-4-6-8-10/h9-10H,3-8H2,1-2H3",PZUDDXJZNSJESK-UHFFFAOYSA-N,CCOC(=O)C(C)C1CCCCC1,-3.3274567494,0.0,1,G1,184.2789999999999,2.765900000000001,52.37200000000004,13.0,2.0,0.0,2.0,3.0,76.0,0.0,1.0,1.0,1.0,26.3,80.65790834781706,2.352919438832615,159.4732140416802
A-4026,calcium bis((2S)-5-oxopyrrolidine-2-carboxylate),"InChI=1S/C5H7NO3.Ca/c7-4-2-1-3(6-4)5(8)9;/h3H,1-2H2,(H,6,7)(H,8,9);/q;+2/p-1",DPKBGUHEYKGWSC-UHFFFAOYSA-M,[Ca++].[O-]C(=O)C1CCC(=O)N1,0.1651478476,0.0,1,G1,168.185,-2.3659,31.925699999999992,10.0,3.0,1.0,5.0,1.0,50.0,0.0,1.0,1.0,1.0,69.22999999999999,87.97609646300252,8.099998654500228e-07,158.97205302419658
A-4028,disodium oxybis[methylbenzenesulphonate],"InChI=1S/C14H14O7S2.2Na/c1-9-3-11(7-13(5-9)22(15,16)17)21-12-4-10(2)6-14(8-12)23(18,19)20;;/h3-8H,1-2H3,(H,15,16,17)(H,18,19,20);;/q;2*+1/p-2",UGVJAWDVDTXCQA-UHFFFAOYSA-L,[Na+].[Na+].Cc1cc(Oc2cc(C)cc(c2)[S]([O-])(=O)=O)cc(c1)[S]([O-])(=O)=O,-0.22079619539999998,0.0,1,G1,402.35700000000014,-4.088059999999993,78.35840000000003,25.0,7.0,0.0,11.0,4.0,124.0,2.0,0.0,0.0,2.0,123.63,190.41599804936632,2.8799988590004626e-06,891.1699374524435