ID,Name,InChI,InChIKey,SMILES,Solubility,SD,Ocurrences,Group,MolWt,MolLogP,MolMR,HeavyAtomCount,NumHAcceptors,NumHDonors,NumHeteroatoms,NumRotatableBonds,NumValenceElectrons,NumAromaticRings,NumSaturatedRings,NumAliphaticRings,RingCount,TPSA,LabuteASA,BalabanJ,BertzCT
A-2698,"2-Butenedioic acid (E)-, di-C16-18-alkyl esters","InChI=1S/C38H72O4/c1-3-5-7-9-11-13-15-17-19-21-23-25-27-29-31-35-41-37(39)33-34-38(40)42-36-32-30-28-26-24-22-20-18-16-14-12-10-8-6-4-2/h33-34H,3-32,35-36H2,1-2H3/b34-33+",ZUWLIWZVBOETHU-JEIPZWNWSA-N,CCCCCCCCCCCCCCCCCOC(=O)/C=C/C(=O)OCCCCCCCCCCCCCCCCC,-7.0740773653,0.0,1,G1,592.9900000000001,12.37179999999998,180.91599999999943,42.0,4.0,0.0,4.0,34.0,248.0,0.0,0.0,0.0,0.0,52.60000000000001,262.1026408874212,3.3336125091568114,535.6434711269443
A-2699,2-bromo-N-[4-chloro-2-(2-chlorobenzoyl)phenyl]acetamide,"InChI=1S/C15H10BrCl2NO2/c16-8-14(20)19-13-6-5-9(17)7-11(13)15(21)10-3-1-2-4-12(10)18/h1-7H,8H2,(H,19,20)",JQMAWYRGSOSWNJ-UHFFFAOYSA-N,Clc1ccc(NC(=O)CBr)c(c1)C(=O)c2ccccc2Cl,-6.8888082879,0.0,1,G1,387.06000000000006,4.557800000000002,88.76020000000001,21.0,2.0,1.0,6.0,4.0,108.0,2.0,0.0,0.0,2.0,46.17,139.93031011185116,2.4683046593056113,703.8230148514472
A-2701,"2-ethyl-2-[[(1-oxoisooctadecyl)oxy]methyl]-1,3-propanediyl bis(isooctadecanoate)","InChI=1S/C60H116O6/c1-8-60(51-64-57(61)48-42-36-30-24-18-12-9-15-21-27-33-39-45-54(2)3,52-65-58(62)49-43-37-31-25-19-13-10-16-22-28-34-40-46-55(4)5)53-66-59(63)50-44-38-32-26-20-14-11-17-23-29-35-41-47-56(6)7/h54-56H,8-53H2,1-7H3",RKJGFHYCZPZJPE-UHFFFAOYSA-N,CCC(COC(=O)CCCCCCCCCCCCCCC(C)C)(COC(=O)CCCCCCCCCCCCCCC(C)C)COC(=O)CCCCCCCCCCCCCCC(C)C,-7.2711824653,0.0,1,G1,933.581999999999,19.36459999999999,284.0289999999992,66.0,6.0,0.0,6.0,52.0,392.0,0.0,0.0,0.0,0.0,78.9,412.096037765881,4.546947851550269,925.2633673357718
A-2702,2-ethylhexyl octadecanoate,"InChI=1S/C26H52O2/c1-3-5-7-9-11-12-13-14-15-16-17-18-19-20-22-24-26(27)28-25-23-21-10-8-6-4-2/h3-25H2,1-2H3",IIGMITQLXAGZTL-UHFFFAOYSA-N,CCCCCCCCCCCCCCCCCC(=O)OCCCCCCCC,-6.8994921961,0.0,1,G1,396.7000000000003,9.151600000000002,123.88100000000011,28.0,2.0,0.0,2.0,23.0,168.0,0.0,0.0,0.0,0.0,26.3,177.13787121729547,3.111805563052441,300.80794088245557
A-2703,2-tetradecyloxirane,"InChI=1S/C16H32O/c1-2-3-4-5-6-7-8-9-10-11-12-13-14-16-15-17-16/h16H,2-15H2,1H3",DSZTYVZOIUIIGA-UHFFFAOYSA-N,CCCCCCCCCCCCCCC1CO1,-6.6820204584,1.6505149978000002,2,G2,240.43099999999993,5.476400000000005,75.43500000000007,17.0,1.0,0.0,1.0,13.0,102.0,0.0,1.0,1.0,1.0,12.53,108.32109681975635,1.60754922625042,151.60416835317903
A-2704,"3-(3,5-di-tert-butyl-4-hydroxyphenyl)-N'-[3-(3,5-di-tert-butyl-4-hydroxyphenyl)propanoyl]propanehydrazide","InChI=1S/C34H52N2O4/c1-31(2,3)23-17-21(18-24(29(23)39)32(4,5)6)13-15-27(37)35-36-28(38)16-14-22-19-25(33(7,8)9)30(40)26(20-22)34(10,11)12/h17-20,39-40H,13-16H2,1-12H3,(H,35,37)(H,36,38)",HCILJBJJZALOAL-UHFFFAOYSA-N,CC(C)(C)c1cc(CCC(=O)NNC(=O)CCc2cc(c(O)c(c2)C(C)(C)C)C(C)(C)C)cc(c1O)C(C)(C)C,-7.04359803,0.6505149977999998,2,G2,552.8000000000003,7.000600000000008,163.94099999999966,40.0,4.0,4.0,6.0,6.0,222.0,2.0,0.0,0.0,2.0,98.66000000000001,241.49859593421706,2.0398824430388,1065.034292047354
A-2705,"3-(heptanoyloxy)-2,2-bis[(heptanoyloxy)methyl]propyl heptanoate","InChI=1S/C33H60O8/c1-5-9-13-17-21-29(34)38-25-33(26-39-30(35)22-18-14-10-6-2,27-40-31(36)23-19-15-11-7-3)28-41-32(37)24-20-16-12-8-4/h5-28H2,1-4H3",NCGQPNAQUYGWMI-UHFFFAOYSA-N,CCCCCCC(=O)OCC(COC(=O)CCCCCC)(COC(=O)CCCCCC)COC(=O)CCCCCC,-7.0680633512,0.0,1,G1,584.8350000000002,8.02720000000001,161.30499999999967,41.0,8.0,0.0,8.0,28.0,240.0,0.0,0.0,0.0,0.0,105.20000000000002,249.51766800672368,5.465300092829316,573.2106466809838
A-2706,"3-(oleoyloxy)-2,2-bis[(oleoyloxy)methyl]propyl octadec-9-enoate (non-preferred name)","InChI=1S/C77H140O8/c1-5-9-13-17-21-25-29-33-37-41-45-49-53-57-61-65-73(78)82-69-77(70-83-74(79)66-62-58-54-50-46-42-38-34-30-26-22-18-14-10-6-2,71-84-75(80)67-63-59-55-51-47-43-39-35-31-27-23-19-15-11-7-3)72-85-76(81)68-64-60-56-52-48-44-40-36-32-28-24-20-16-12-8-4/h33-40H,5-32,41-72H2,1-4H3/b37-33-,38-34-,39-35-,40-36-",QTIMEBJTEBWHOB-PMDAXIHYSA-N,CCCCCCCC\C=C/CCCCCCCC(=O)OCC(COC(=O)CCCCCCC\C=C/CCCCCCCC)(COC(=O)CCCCCCC\C=C/CCCCCCCC)COC(=O)CCCCCCC\C=C/CCCCCCCC,-7.378019409199999,0.0,1,G1,1193.958999999999,24.29560000000003,364.0770000000009,85.0,8.0,0.0,8.0,68.0,496.0,0.0,0.0,0.0,0.0,105.20000000000002,526.8167089114366,5.513952821459599,1332.6448141634314
A-2707,"3-[(3-methylnonadecanoyl)oxy]-2,2-bis({[(3-methylnonadecanoyl)oxy]methyl})propyl 3-methylnonadecanoate","InChI=1S/C77H148O8/c1-69(2)57-49-41-33-25-17-9-13-21-29-37-45-53-61-73(78)82-65-77(66-83-74(79)62-54-46-38-30-22-14-10-18-26-34-42-50-58-70(3)4,67-84-75(80)63-55-47-39-31-23-15-11-19-27-35-43-51-59-71(5)6)68-85-76(81)64-56-48-40-32-24-16-12-20-28-36-44-52-60-72(7)8/h69-72H,9-68H2,1-8H3",LPGFSDGXTDNTCB-UHFFFAOYSA-N,CC(C)CCCCCCCCCCCCCCC(=O)OCC(COC(=O)CCCCCCCCCCCCCCC(C)C)(COC(=O)CCCCCCCCCCCCCCC(C)C)COC(=O)CCCCCCCCCCCCCCC(C)C,-7.3809427734,0.0,1,G1,1202.022999999999,24.615200000000033,364.1730000000008,85.0,8.0,0.0,8.0,68.0,504.0,0.0,0.0,0.0,0.0,105.20000000000002,529.5751210401737,5.425346097574591,1225.0650273012684
A-2708,"3-hydroxy-2,2-dimethylpropyl heptanoate","InChI=1S/C7H14O2.C5H12O2/c1-2-3-4-5-6-7(8)9;1-5(2,3-6)4-7/h2-6H2,1H3,(H,8,9);6-7H,3-4H2,1-2H3",VRYUGRNJSPQWJC-UHFFFAOYSA-N,CCCCCCC(O)=O.CC(C)(CO)CO,-6.6708690080999995,0.0,1,G1,234.33599999999996,2.0386,64.34740000000005,16.0,3.0,3.0,4.0,7.0,98.0,0.0,0.0,0.0,0.0,77.76,98.30366879635329,0.0,160.40169550220236
A-2709,3-hydroxy-2-(hydroxymethyl)-2-{[(9Z)-octadec-9-enoyloxy]methyl}propyl (9Z)-octadec-9-enoate,"InChI=1S/C41H76O6/c1-3-5-7-9-11-13-15-17-19-21-23-25-27-29-31-33-39(44)46-37-41(35-42,36-43)38-47-40(45)34-32-30-28-26-24-22-20-18-16-14-12-10-8-6-4-2/h17-20,42-43H,3-16,21-38H2,1-2H3/b19-17+,20-18+",BJXXCOMGRRCAGN-XPWSMXQVSA-N,CCCCCCCC/C=C/CCCCCCCC(=O)OCC(CO)(CO)COC(=O)CCCCCCC\C=C\CCCCCCCC,-7.1238862525,0.0,1,G1,665.0529999999999,11.118799999999993,197.42659999999927,47.0,6.0,2.0,6.0,36.0,276.0,0.0,0.0,0.0,0.0,93.06,290.0963317028186,3.8065576798592144,684.2166113231531
A-2710,3-methylbutyl dodecanoate,"InChI=1S/C17H34O2/c1-4-5-6-7-8-9-10-11-12-13-17(18)19-15-14-16(2)3/h16H,4-15H2,1-3H3",FVKRIDSRWFEQME-UHFFFAOYSA-N,CCCCCCCCCCCC(=O)OCCC(C)C,-6.733128222,0.0,1,G1,270.45699999999994,5.496600000000005,82.25800000000007,19.0,2.0,0.0,2.0,13.0,114.0,0.0,0.0,0.0,0.0,26.3,119.85339218772594,3.1407417895296073,199.43874567421344
A-2712,"Decanoic acid, mixed diesters with octanoic acid and propylene glycol","InChI=1S/C10H20O2.C8H16O2.C3H8O2/c1-2-3-4-5-6-7-8-9-10(11)12;1-2-3-4-5-6-7-8(9)10;1-3(5)2-4/h2-9H2,1H3,(H,11,12);2-7H2,1H3,(H,9,10);3-5H,2H2,1H3",YZWQUQVFVLJWCS-UHFFFAOYSA-N,CCCCCCCCCC(O)=O.CCCCCCCC(O)=O.CC(O)CO,-6.8949548476,0.0,1,G1,392.5770000000001,5.002700000000005,110.02420000000008,27.0,4.0,4.0,6.0,15.0,164.0,0.0,0.0,0.0,0.0,115.06,165.54973483169178,-3.466951797203102e-07,305.0469574122439
A-2713,"Decanoic acid, mixed esters with octanoic acid and pentaerythritol","InChI=1S/C10H20O2.C8H16O2.C5H12O4/c1-2-3-4-5-6-7-8-9-10(11)12;1-2-3-4-5-6-7-8(9)10;6-1-5(2-7,3-8)4-9/h2-9H2,1H3,(H,11,12);2-7H2,1H3,(H,9,10);6-9H,1-4H2",GFFYVKLAGBXHIN-UHFFFAOYSA-N,CCCCCCCCCC(O)=O.CCCCCCCC(O)=O.OCC(CO)(CO)CO,-6.9567723715,0.0,1,G1,452.62900000000025,3.5852000000000017,122.03380000000008,31.0,6.0,6.0,8.0,18.0,188.0,0.0,0.0,0.0,0.0,155.51999999999998,187.868086564877,-3.839234387638026e-07,366.2629857322014
A-2714,"Fatty acids, C5-9, hexaesters with dipentaerythritol","InChI=1S/C15H30O8/c1-2-3-4-13(21)23-12-15(8-19,9-20)11-22-10-14(5-16,6-17)7-18/h16-20H,2-12H2,1H3",ITJIINAVMOBHSF-UHFFFAOYSA-N,CCCCC(=O)OCC(CO)(CO)COCC(CO)(CO)CO,-6.8304564999,0.0,1,G1,338.39700000000005,-1.3292999999999988,81.59800000000003,23.0,8.0,5.0,8.0,14.0,138.0,0.0,0.0,0.0,0.0,136.68,136.20822194941965,4.503552654341574,304.33407479267936
A-2715,"N,N'-bis(2,6-diisopropylphenyl)carbodiimide","InChI=1S/C25H34N2/c1-16(2)20-11-9-12-21(17(3)4)24(20)26-15-27-25-22(18(5)6)13-10-14-23(25)19(7)8/h9-14,16-19H,1-8H3",XLDBGFGREOMWSL-UHFFFAOYSA-N,CC(C)c1cccc(C(C)C)c1N=C=Nc2c(cccc2C(C)C)C(C)C,-6.8604110817,0.0,1,G1,362.5610000000001,8.317300000000005,118.42300000000006,27.0,2.0,0.0,2.0,6.0,144.0,2.0,0.0,0.0,2.0,24.72,165.02338978443717,2.617446895442971,715.3975276681867
A-2718,butyl hexadecanoate butyl octadecanoate,"InChI=1S/C22H44O2.C20H40O2/c1-3-5-7-8-9-10-11-12-13-14-15-16-17-18-19-20-22(23)24-21-6-4-2;1-3-5-7-8-9-10-11-12-13-14-15-16-17-18-20(21)22-19-6-4-2/h3-21H2,1-2H3;3-19H2,1-2H3",FQWCYZXAJQAXBD-UHFFFAOYSA-N,CCCCCCCCCCCCCCCCCC(=O)OCCCC.CCCCCCCCCCCCCCCC(=O)OCCCC,-7.116029628200001,0.0,1,G1,653.1300000000002,14.402199999999969,201.5919999999992,46.0,4.0,0.0,4.0,36.0,276.0,0.0,0.0,0.0,0.0,52.60000000000001,289.257843530721,0.0,575.992137199387
A-2720,diisodecyl azelate,"InChI=1S/C29H56O4/c1-26(2)20-14-8-6-12-18-24-32-28(30)22-16-10-5-11-17-23-29(31)33-25-19-13-7-9-15-21-27(3)4/h26-27H,5-25H2,1-4H3",WLLCYXDFVBWGBU-UHFFFAOYSA-N,CC(C)CCCCCCCOC(=O)CCCCCCCC(=O)OCCCCCCCC(C)C,-6.971983320700001,0.0,1,G1,468.76300000000043,8.796700000000005,139.31699999999998,33.0,4.0,0.0,4.0,24.0,196.0,0.0,0.0,0.0,0.0,52.60000000000001,205.507764890036,3.291908319111924,404.9028214588122
A-2721,ditetradecyl but-2-enedioate,"InChI=1S/C32H60O4/c1-3-5-7-9-11-13-15-17-19-21-23-25-29-35-31(33)27-28-32(34)36-30-26-24-22-20-18-16-14-12-10-8-6-4-2/h27-28H,3-26,29-30H2,1-2H3/b28-27+",DYVHFPDDBMMBAX-BYYHNAKLSA-N,CCCCCCCCCCCCCCOC(=O)\C=C\C(=O)OCCCCCCCCCCCCCC,-7.0076009975,0.0,1,G1,508.8280000000006,10.031199999999997,153.2139999999998,36.0,4.0,0.0,4.0,28.0,212.0,0.0,0.0,0.0,0.0,52.60000000000001,223.91298820104154,3.3663644398851393,456.38407872159394
A-2722,docosanamide,"InChI=1S/C22H45NO/c1-2-3-4-5-6-7-8-9-10-11-12-13-14-15-16-17-18-19-20-21-22(23)24/h2-21H2,1H3,(H2,23,24)",ORAWFNKFUWGRJG-UHFFFAOYSA-N,CCCCCCCCCCCCCCCCCCCCCC(N)=O,-6.8320079078,0.0,1,G1,339.60800000000006,7.293600000000008,107.20840000000008,24.0,1.0,1.0,2.0,20.0,144.0,0.0,0.0,0.0,0.0,43.09,151.90444822721486,2.9653789386426435,252.35446975062405
A-2723,docosyl docosanoate,"InChI=1S/C44H88O2/c1-3-5-7-9-11-13-15-17-19-21-23-25-27-29-31-33-35-37-39-41-43-46-44(45)42-40-38-36-34-32-30-28-26-24-22-20-18-16-14-12-10-8-6-4-2/h3-43H2,1-2H3",NJIMZDGGLTUCPX-UHFFFAOYSA-N,CCCCCCCCCCCCCCCCCCCCCCOC(=O)CCCCCCCCCCCCCCCCCCCCC,-7.1133991412,0.0,1,G1,649.1859999999999,16.17339999999996,206.98699999999914,46.0,2.0,0.0,2.0,41.0,276.0,0.0,0.0,0.0,0.0,26.3,291.7068292764343,3.1386720193991167,544.0252588278128
A-2724,dodecyl (9Z)-octadec-9-enoate,"InChI=1S/C30H58O2/c1-3-5-7-9-11-13-15-16-17-18-19-20-22-24-26-28-30(31)32-29-27-25-23-21-14-12-10-8-6-4-2/h16-17H,3-15,18-29H2,1-2H3/b17-16+",OXPCWUWUWIWSGI-WUKNDPDISA-N,CCCCCCCCCCCCOC(=O)CCCCCCC\C=C\CCCCCCCC,-6.9550061959,0.0,1,G1,450.7920000000004,10.487999999999992,142.25499999999994,32.0,2.0,0.0,2.0,26.0,190.0,0.0,0.0,0.0,0.0,26.3,201.90803664269765,3.1955027877938305,388.2928311882868
A-2725,ethyl (9Z)-hexadec-9-enoate ethyl (9Z)-octadec-9-enoate ethyl hexadecanoate ethyl tetradecanoate,"InChI=1S/C20H38O2.C18H36O2.C18H34O2.C16H32O2/c1-3-5-6-7-8-9-10-11-12-13-14-15-16-17-18-19-20(21)22-4-2;2*1-3-5-6-7-8-9-10-11-12-13-14-15-16-17-18(19)20-4-2;1-3-5-6-7-8-9-10-11-12-13-14-15-16(17)18-4-2/h11-12H,3-10,13-19H2,1-2H3;3-17H2,1-2H3;9-10H,3-8,11-17H2,1-2H3;3-15H2,1-2H3/b12-11-;;10-9-;",RYYGJLVSNHAPGS-KHGNKIMXSA-N,CCCCCCCCCCCCCCCC(=O)OCC.CCCCCCCCCCCCCC(=O)OCC.CCCCCCCC\C=C/CCCCCCCC(=O)OCC.CCCCCC\C=C/CCCCCCCC(=O)OCC,-7.355606282999999,0.0,1,G1,1133.9039999999989,23.675200000000025,347.5920000000006,80.0,8.0,0.0,8.0,58.0,476.0,0.0,0.0,0.0,0.0,105.20000000000003,499.38869786440983,-4.824464118896494e-07,1245.782351602539
A-2726,hexadecyl 2-ethylhexanoate,"InChI=1S/C24H48O2/c1-4-7-9-10-11-12-13-14-15-16-17-18-19-20-22-26-24(25)23(6-3)21-8-5-2/h23H,4-22H2,1-3H3",XJNUECKWDBNFJV-UHFFFAOYSA-N,CCCCCCCCCCCCCCCCOC(=O)C(CC)CCCC,-6.867639521599999,0.0,1,G1,368.64600000000013,8.227300000000008,114.5770000000001,26.0,2.0,0.0,2.0,20.0,156.0,0.0,0.0,0.0,0.0,26.3,164.40798698850224,3.268101548084262,287.9352303717598
A-2727,hexyl dodecanoate,"InChI=1S/C18H36O2/c1-3-5-7-9-10-11-12-13-14-16-18(19)20-17-15-8-6-4-2/h3-17H2,1-2H3",CMBYOWLFQAFZCP-UHFFFAOYSA-N,CCCCCCCCCCCC(=O)OCCCCCC,-6.7550878414,0.0,1,G1,284.484,6.030800000000006,86.94500000000008,20.0,2.0,0.0,2.0,15.0,120.0,0.0,0.0,0.0,0.0,26.3,126.21833430212257,3.1115811018036084,201.59490309182667
A-2728,"isooctadecanoic acid, monoester with glycerol","InChI=1S/C21H42O4/c1-19(2)15-13-11-9-7-5-3-4-6-8-10-12-14-16-21(24)25-20(17-22)18-23/h19-20,22-23H,3-18H2,1-2H3",MQXVQTFGCRTCRG-UHFFFAOYSA-N,CC(C)CCCCCCCCCCCCCCC(=O)OC(CO)CO,-6.855595468500001,0.0,1,G1,358.56300000000005,5.000200000000006,103.52760000000008,25.0,4.0,2.0,4.0,18.0,150.0,0.0,0.0,0.0,0.0,66.76,154.9016281497044,3.1979485247003527,287.6206365834133
A-2729,magnesium diniobate,InChI=1S/2Mg.2Nb.7O/q2*+2;2*+5;7*-2,CWMQWEHVVUJOBW-UHFFFAOYSA-N,[O--].[O--].[O--].[O--].[O--].[O--].[O--].[Mg++].[Mg++].[Nb+5].[Nb+5],-6.8406266847,0.0,1,G1,346.415,-1.5982,16.313499999999998,11.0,0.0,0.0,11.0,0.0,56.0,0.0,0.0,0.0,0.0,199.5,127.54034908158421,-0.0,14.402263350607042
A-2730,octadec-9-en-1-yl docos-13-enoate,"InChI=1S/C40H76O2/c1-3-5-7-9-11-13-15-17-19-21-22-23-24-26-28-30-32-34-36-38-40(41)42-39-37-35-33-31-29-27-25-20-18-16-14-12-10-8-6-4-2/h17-20H,3-16,21-39H2,1-2H3/b19-17-,20-18-",SZAMSYKZCSDVBH-CLFAGFIQSA-N,CCCCCCCC\C=C/CCCCCCCCCCCC(=O)OCCCCCCCC\C=C/CCCCCCCC,-7.071179206900001,0.0,1,G1,589.0460000000002,14.164999999999969,188.33099999999936,42.0,2.0,0.0,2.0,35.0,248.0,0.0,0.0,0.0,0.0,26.3,264.8678547544794,3.2130844030983354,563.9858269386857
A-2731,octadec-9-en-1-yl octadec-9-enoate,"InChI=1S/C36H68O2/c1-3-5-7-9-11-13-15-17-19-21-23-25-27-29-31-33-35-38-36(37)34-32-30-28-26-24-22-20-18-16-14-12-10-8-6-4-2/h17,19-20,22H,3-16,18,21,23-35H2,1-2H3/b19-17-,22-20-",ZWHZXVJDSAKMBA-MGXYOJEMSA-N,CCCCCCCCC\C=C/CCCCCCC(=O)OCCCCCCCC\C=C/CCCCCCCC,-7.0277066834,0.0,1,G1,532.9380000000006,12.60459999999998,169.8629999999996,38.0,2.0,0.0,2.0,31.0,224.0,0.0,0.0,0.0,0.0,26.3,239.40808629689306,3.2337269190567617,507.4716454161781
A-2732,octyl octanoate,"InChI=1S/C16H32O2/c1-3-5-7-9-11-13-15-18-16(17)14-12-10-8-6-4-2/h3-15H2,1-2H3",DJNTZVRUYMHBTD-UHFFFAOYSA-N,CCCCCCCCOC(=O)CCCCCCC,-6.709998828,0.0,1,G1,256.4299999999999,5.250600000000006,77.71100000000007,18.0,2.0,0.0,2.0,13.0,108.0,0.0,0.0,0.0,0.0,26.3,113.48845007332933,3.118900487956549,177.93577382145608
A-2733,tetradecyl octadec-9-enoate,"InChI=1S/C32H62O2/c1-3-5-7-9-11-13-15-17-18-19-20-22-24-26-28-30-32(33)34-31-29-27-25-23-21-16-14-12-10-8-6-4-2/h17-18H,3-16,19-31H2,1-2H3/b18-17-",DHZWALZKPWZSMA-ZCXUNETKSA-N,CCCCCCCCCCCCCCOC(=O)CCCCCCC\C=C/CCCCCCCC,-6.9812258596,0.0,1,G1,478.8460000000005,11.268199999999988,151.4889999999998,34.0,2.0,0.0,2.0,28.0,202.0,0.0,0.0,0.0,0.0,26.3,214.63792087149088,3.1923920805891446,415.2351096737668
A-2734,"tris(2-ethylhexyl) 2-acetoxypropane-1,2,3-tricarboxylate","InChI=1S/C32H58O8/c1-8-14-17-26(11-4)22-37-29(34)20-32(40-25(7)33,31(36)39-24-28(13-6)19-16-10-3)21-30(35)38-23-27(12-5)18-15-9-2/h26-28H,8-24H2,1-7H3",FRDNONBEXWDRDM-UHFFFAOYSA-N,CCCCC(CC)COC(=O)CC(CC(=O)OCC(CC)CCCC)(OC(C)=O)C(=O)OCC(CC)CCCC,-7.057520046900001,0.0,1,G1,570.8080000000001,7.3473000000000095,156.52599999999975,40.0,8.0,0.0,8.0,24.0,234.0,0.0,0.0,0.0,0.0,105.2,243.15272589232706,5.818433273992938,685.7039952685168
A-2736,"2-(2H-1,2,3-benzotriazol-2-yl)-4,6-bis(2-phenylpropan-2-yl)phenol","InChI=1S/C30H29N3O/c1-29(2,21-13-7-5-8-14-21)23-19-24(30(3,4)22-15-9-6-10-16-22)28(34)27(20-23)33-31-25-17-11-12-18-26(25)32-33/h5-20,34H,1-4H3",OLFNXLXEGXRUOI-UHFFFAOYSA-N,CC(C)(c1ccccc1)c2cc(n3nc4ccccc4n3)c(O)c(c2)C(C)(C)c5ccccc5,-7.0488126213,0.4515449934500002,2,G3,447.58200000000016,6.777900000000007,137.6697999999999,34.0,4.0,1.0,4.0,5.0,170.0,5.0,0.0,0.0,5.0,50.94,200.06357171431202,1.776607780031092,1417.9762234792472
A-2737,"4,4',4''-butane-1,1,3-triyltris(2-tert-butyl-5-methylphenol)","InChI=1S/C37H52O3/c1-21(25-18-29(35(5,6)7)32(38)15-22(25)2)14-28(26-19-30(36(8,9)10)33(39)16-23(26)3)27-20-31(37(11,12)13)34(40)17-24(27)4/h15-21,28,38-40H,14H2,1-13H3",PRWJPWSKLXYEPD-UHFFFAOYSA-N,CC(CC(c1cc(c(O)cc1C)C(C)(C)C)c2cc(c(O)cc2C)C(C)(C)C)c3cc(c(O)cc3C)C(C)(C)C,-7.1341930504999995,0.0,1,G1,544.8200000000003,9.946859999999996,169.5063999999996,40.0,3.0,3.0,3.0,5.0,218.0,3.0,0.0,0.0,3.0,60.69,242.8621929617487,2.2970724734234746,1321.6093532761718
A-2738,"4-[(E)-2-(5-cyano-2-hydroxy-1,4-dimethyl-6-oxo-1,6-dihydropyridin-3-yl)diazen-1-yl]-N-(2-ethylhexyl)benzamide","InChI=1S/C23H29N5O3/c1-5-7-8-16(6-2)14-25-21(29)17-9-11-18(12-10-17)26-27-20-15(3)19(13-24)22(30)28(4)23(20)31/h9-12,16,26H,5-8,14H2,1-4H3,(H,25,29)/b27-20-",ATCLRTKFQOUIKP-OOAXWGSJSA-N,CCCCC(CC)CNC(=O)c1ccc(N\N=C2\C(=C(C#N)C(=O)N(C)C2=O)C)cc1,-7.0248108563,0.0,1,G1,423.5170000000002,3.2393800000000015,119.22890000000004,31.0,6.0,2.0,8.0,9.0,164.0,1.0,0.0,1.0,2.0,114.66,182.5421474036404,2.0464969518807967,940.9537842566422
A-2739,"5-[(E)-2-(3,4-dichlorophenyl)diazen-1-yl]-6-hydroxy-1,4-dimethyl-2-oxo-1,2-dihydropyridine-3-carbonitrile","InChI=1S/C14H10Cl2N4O2/c1-7-9(6-17)13(21)20(2)14(22)12(7)19-18-8-3-4-10(15)11(16)5-8/h3-5,18H,1-2H3/b19-12+",XJQKXIISBODNEJ-XDHOZWIPSA-N,CN1C(=O)C(=N/Nc2ccc(Cl)c(Cl)c2)/C(=C(C#N)C1=O)C,-6.9257837823,0.0,1,G1,337.16600000000017,2.5999800000000004,83.60970000000002,22.0,5.0,1.0,8.0,2.0,112.0,1.0,0.0,1.0,2.0,85.56,136.15281654418246,2.3908503104292658,777.5377831362407
A-2740,"tris[(3,5-di-tert-butyl-4-hydroxyphenyl)methyl]-1,3,5-triazinane-2,4,6-trione","InChI=1S/C48H69N3O6/c1-43(2,3)31-19-28(20-32(37(31)52)44(4,5)6)25-49-40(55)50(26-29-21-33(45(7,8)9)38(53)34(22-29)46(10,11)12)42(57)51(41(49)56)27-30-23-35(47(13,14)15)39(54)36(24-30)48(16,17)18/h19-24,52-54H,25-27H2,1-18H3",VNQNXQYZMPJLQX-UHFFFAOYSA-N,CC(C)(C)c1cc(CN2C(=O)N(Cc3cc(c(O)c(c3)C(C)(C)C)C(C)(C)C)C(=O)N(Cc4cc(c(O)c(c4)C(C)(C)C)C(C)(C)C)C2=O)cc(c1O)C(C)(C)C,-7.2923086931,0.6989700042999996,2,G2,784.095,9.218400000000003,233.04839999999913,57.0,9.0,3.0,9.0,6.0,312.0,4.0,0.0,0.0,4.0,126.69000000000001,339.6122487857423,2.1164230003505446,1964.3249220430237
A-2741,2-benzoyl-5-[3-(4-benzoyl-3-hydroxyphenoxy)-2-hydroxypropoxy]phenol,"InChI=1S/C29H24O7/c30-21(17-35-22-11-13-24(26(31)15-22)28(33)19-7-3-1-4-8-19)18-36-23-12-14-25(27(32)16-23)29(34)20-9-5-2-6-10-20/h1-16,21,30-32H,17-18H2",VZYBFCDYFROPPK-UHFFFAOYSA-N,OC(COc1ccc(c(O)c1)C(=O)c2ccccc2)COc3ccc(c(O)c3)C(=O)c4ccccc4,-7.1387547034,0.0,1,G1,484.50400000000025,4.378500000000003,132.95939999999996,36.0,7.0,3.0,7.0,10.0,182.0,4.0,0.0,0.0,4.0,113.28999999999999,207.36023222536141,1.298863700518996,1245.9237905045352
A-2742,(2-methyldodecyl)(tridecyl)amine; ditridecylamine,"InChI=1S/2C26H55N/c1-4-6-8-10-12-14-15-16-18-20-22-24-27-25-26(3)23-21-19-17-13-11-9-7-5-2;1-3-5-7-9-11-13-15-17-19-21-23-25-27-26-24-22-20-18-16-14-12-10-8-6-4-2/h26-27H,4-25H2,1-3H3;27H,3-26H2,1-2H3",MQIFMNUVBUCDBA-UHFFFAOYSA-N,CCCCCCCCCCCCCNCCCCCCCCCCCCC.CCCCCCCCCCCCCNCC(C)CCCCCCCCCC,-7.4056684463,1.7614393726,2,G2,763.4659999999997,18.25189999999998,251.51339999999868,54.0,2.0,2.0,2.0,47.0,328.0,0.0,0.0,0.0,0.0,24.06,345.45685438280174,0.0,566.9284446545829
A-2743,"(E)-N,6,6-trimethyl-N-(naphthalen-1-ylmethyl)hept-2-en-4-yn-1-amine","InChI=1S/C21H25N/c1-21(2,3)15-8-5-9-16-22(4)17-19-13-10-12-18-11-6-7-14-20(18)19/h5-7,9-14H,16-17H2,1-4H3/b9-5+",DOMXUEMWDBAQBQ-WEVVVXLNSA-N,CN(C\C=C\C#CC(C)(C)C)Cc1cccc2ccccc12,-4.4645461779,0.0,1,G1,291.438,4.877300000000004,96.65300000000006,22.0,1.0,0.0,1.0,4.0,114.0,2.0,0.0,0.0,2.0,3.24,134.19688693947325,1.9777134332849182,702.4950517709103
A-2744,2-methyl-2-[(2-methylundecan-2-yl)disulfanyl]undecane,"InChI=1S/C24H50S2/c1-7-9-11-13-15-17-19-21-23(3,4)25-26-24(5,6)22-20-18-16-14-12-10-8-2/h7-22H2,1-6H3",LEDIWWJKWAMGLD-UHFFFAOYSA-N,CCCCCCCCCC(C)(C)SSC(C)(C)CCCCCCCCC,-7.1279660508000005,1.0310739533499995,2,G2,402.7980000000004,10.206399999999995,128.56000000000012,26.0,2.0,0.0,2.0,19.0,158.0,0.0,0.0,0.0,0.0,0.0,174.77910179603168,3.722993690830275,266.58576839087175