ID,Name,InChI,InChIKey,SMILES,Solubility,SD,Ocurrences,Group,MolWt,MolLogP,MolMR,HeavyAtomCount,NumHAcceptors,NumHDonors,NumHeteroatoms,NumRotatableBonds,NumValenceElectrons,NumAromaticRings,NumSaturatedRings,NumAliphaticRings,RingCount,TPSA,LabuteASA,BalabanJ,BertzCT
A-3496,"4-methyl-1,3-oxazole-5-carbonitrile","InChI=1S/C5H4N2O/c1-4-5(2-6)8-3-7-4/h3H,1H3",JZSLPQXOLZCAME-UHFFFAOYSA-N,Cc1ncoc1C#N,-0.324555733,0.0,1,G1,108.1,0.8547,25.955,8.0,3.0,0.0,3.0,0.0,40.0,1.0,0.0,0.0,1.0,49.82,46.56784427478224,3.154803644271227,220.5776960435723
A-3497,cadmium dinitrate,"InChI=1S/Cd.2HNO3/c;2*2-1(3)4/h;2*(H,2,3,4)/q+2;;",IZIPRBSCGMISKX-UHFFFAOYSA-N,[Cd++].O[N+]([O-])=O.O[N+]([O-])=O,0.3276361318,0.0,1,G1,238.436,-0.6979,17.561800000000005,9.0,4.0,2.0,9.0,0.0,48.0,0.0,0.0,0.0,0.0,126.74000000000001,68.46518758887134,-7.199999951999999e-08,69.05865002596163
A-3498,sodium (ethoxymethanethioyl)sulfanide,"InChI=1S/C3H6OS2.Na/c1-2-4-3(5)6;/h2H2,1H3,(H,5,6);/q;+1/p-1",RZFBEFUNINJXRQ-UHFFFAOYSA-M,[Na+].CCOC([S-])=S,0.5443381649,0.006355982749999989,2,G3,144.196,-2.1412999999999993,31.588999999999995,7.0,3.0,0.0,4.0,1.0,36.0,0.0,0.0,0.0,0.0,9.23,76.50992701944818,0.0,56.89659695223976
A-3500,"octane-1,8-diamine",InChI=1S/C8H20N2.2ClH/c9-7-5-3-1-2-4-6-8-10;;/h1-10H2;2*1H,ZFLWZOGXFQNIMT-UHFFFAOYSA-N,[Cl-].[Cl-].[NH3+]CCCCCCCC[NH3+],0.3621421768,0.03034892019999999,2,G3,217.18399999999994,-6.181200000000002,43.2122,12.0,0.0,2.0,4.0,7.0,78.0,0.0,0.0,0.0,0.0,55.28,88.2798137277301,-4.0499993587501057e-07,55.01955000865387
A-3501,"(3S,4aS,8aR)-N-tert-butyl-3,4,4a,5,6,7,8,8a-octahydro-1H-isoquinolin-2-ium-3-carboxamide","InChI=1S/C14H26N2O/c1-14(2,3)16-13(17)12-8-10-6-4-5-7-11(10)9-15-12/h10-12,15H,4-9H2,1-3H3,(H,16,17)/p+1/t10-,11-,12-/m0/s1",UPZBXVBPICTBDP-SRVKXCTJSA-O,CC(C)(C)NC(=O)[C@@H]1C[C@@H]2CCCC[C@H]2C[NH2+]1,-2.1616093611,0.0,1,G1,239.38299999999992,1.0432000000000006,68.54110000000004,17.0,1.0,2.0,3.0,1.0,98.0,0.0,2.0,2.0,2.0,45.71,104.73308267518685,1.8863395038184612,282.4370221055215
A-3502,"hexane-1,6-diol","InChI=1S/C6H14O2/c7-5-3-1-2-4-6-8/h7-8H,1-6H2",XXMIOPMDWAUFGU-UHFFFAOYSA-N,OCCCCCCO,1.6264407184,0.0,1,G1,118.176,0.5313999999999999,32.63959999999998,8.0,2.0,2.0,2.0,5.0,50.0,0.0,0.0,0.0,0.0,40.46,50.15242910420461,2.53006045688352,31.509775004326936
A-3503,2-(dimethylamino)ethyl 2-methylprop-2-enoate,"InChI=1S/C8H15NO2/c1-7(2)8(10)11-6-5-9(3)4/h1,5-6H2,2-4H3",JKNCOURZONDCGV-UHFFFAOYSA-N,CN(C)CCOC(=O)C(C)=C,0.5024815492,0.15051499780000005,2,G3,157.21299999999997,0.6672999999999998,44.32700000000001,11.0,3.0,0.0,3.0,4.0,64.0,0.0,0.0,0.0,0.0,29.54,67.63914379617556,3.3972180387789788,152.1710478569335
A-3504,"disodium 2,3-dihydroxybutanedioate","InChI=1S/C4H6O6.2Na/c5-1(3(7)8)2(6)4(9)10;;/h1-2,5-6H,(H,7,8)(H,9,10);;/q;2*+1/p-2",HELHAJAZNSDZJO-UHFFFAOYSA-L,[Na+].[Na+].OC(C(O)C([O-])=O)C([O-])=O,0.41105635729999995,0.0,1,G1,194.04999999999995,-10.783999999999999,22.027599999999996,12.0,6.0,2.0,8.0,3.0,58.0,0.0,0.0,0.0,0.0,120.72,112.16085582531488,-4.049999586000043e-07,141.6270750562502
A-3505,triethyl phosphate,"InChI=1S/C6H15O4P/c1-4-8-11(7,9-5-2)10-6-3/h4-6H2,1-3H3",DQWPFSLDHJDLRL-UHFFFAOYSA-N,CCO[P](=O)(OCC)OCC,0.43852652340000003,0.0,1,G1,182.15599999999998,2.2039999999999997,42.48450000000001,11.0,4.0,0.0,5.0,6.0,68.0,0.0,0.0,0.0,0.0,44.760000000000005,67.4542079628083,3.908471949775869,112.769535289866
A-3506,5-oxo-DL-proline,"InChI=1S/C5H7NO3/c7-4-2-1-3(6-4)5(8)9/h3H,1-2H2,(H,6,7)(H,8,9)",ODHCTXKNWHHXJC-UHFFFAOYSA-N,OC(=O)C1CCC(=O)N1,-0.4042589172,0.48562945860000006,2,G3,129.115,-0.6504000000000001,28.800499999999992,9.0,2.0,2.0,4.0,1.0,50.0,0.0,1.0,1.0,1.0,66.39999999999999,51.86032846777834,2.4808965270174173,154.28209708830377
A-3508,butyraldehyde,"InChI=1S/C4H8O/c1-2-3-4-5/h4H,2-3H2,1H3",ZTQSAGDEMFDKMZ-UHFFFAOYSA-N,CCCC=O,-0.1590074228,0.07615371139999999,2,G3,72.107,0.9854,20.971999999999994,5.0,1.0,0.0,1.0,2.0,30.0,0.0,0.0,0.0,0.0,17.07,31.99559947106314,2.4017152226171965,24.828921423310437
A-3512,thiolane,InChI=1S/C4H8S/c1-2-4-5-3-1/h1-4H2,RAOIDOHSFRTOEL-UHFFFAOYSA-N,C1CCSC1,-1.1819174748,0.0,1,G1,88.175,1.5133999999999999,26.55899999999999,5.0,1.0,0.0,1.0,0.0,30.0,0.0,1.0,1.0,1.0,0.0,36.95135624285539,2.083333333333333,15.219280948873621
A-3514,phenyl acetate,"InChI=1S/C8H8O2/c1-7(9)10-8-5-3-2-4-6-8/h2-6H,1H3",IPBVNPXQWQGGJP-UHFFFAOYSA-N,CC(=O)Oc1ccccc1,-1.3735951622999998,0.0,1,G1,136.14999999999998,1.6118999999999999,37.75100000000001,10.0,2.0,0.0,2.0,1.0,52.0,1.0,0.0,0.0,1.0,26.3,59.43635467784082,2.6742416022951265,215.9590174505521
A-3515,chloroethane,"InChI=1S/C2H5Cl/c1-2-3/h2H2,1H3",HRYZWHHZPQKTII-UHFFFAOYSA-N,CCCl,-1.0507488092,0.0,1,G1,64.515,1.2451,16.394000000000002,3.0,0.0,0.0,1.0,0.0,20.0,0.0,0.0,0.0,0.0,0.0,25.407459369107833,1.6329931618554523,2.7548875021634682
A-3516,"4,6-dichloropyrimidine",InChI=1S/C4H2Cl2N2/c5-3-1-4(6)8-2-7-3/h1-2H,XJPZKYIHCLDXST-UHFFFAOYSA-N,Clc1cc(Cl)ncn1,-1.4172531143,0.0,1,G1,148.98000000000002,1.7833999999999997,32.05199999999999,8.0,2.0,0.0,4.0,0.0,42.0,1.0,0.0,0.0,1.0,25.78,56.47723153515334,3.077660437970554,171.89811391899892
A-3517,"trisodium 4-amino-5-hydroxy-3-[(E)-2-{4-[(E)-2-[2-oxo-1-(phenylcarbamoyl)propyl]diazen-1-yl]phenyl}diazen-1-yl]-6-[(E)-2-(4-sulfonatonaphthalen-1-yl)diazen-1-yl]naphthalene-2,7-disulfonate","InChI=1S/C36H28N8O12S3.3Na/c1-19(45)32(36(47)38-21-7-3-2-4-8-21)42-39-22-11-13-23(14-12-22)40-43-33-28(58(51,52)53)17-20-18-29(59(54,55)56)34(35(46)30(20)31(33)37)44-41-26-15-16-27(57(48,49)50)25-10-6-5-9-24(25)26;;;/h2-18,32,41H,37H2,1H3,(H,38,47)(H,48,49,50)(H,51,52,53)(H,54,55,56);;;/q;3*+1/p-3/b42-39?,43-40?,44-34+;;;",ZZXARQYSWIVLGM-ICCBSFAUSA-K,[Na+].[Na+].[Na+].CC(=O)C(N=Nc1ccc(cc1)N=Nc2c(N)c3c(cc2[S]([O-])(=O)=O)C=C(\C(=N/Nc4ccc(c5ccccc45)[S]([O-])(=O)=O)C3=O)[S]([O-])(=O)=O)C(=O)Nc6ccccc6,-2.2180283184,0.0,1,G1,926.8110000000004,-4.111899999999993,208.46589999999978,62.0,19.0,3.0,26.0,12.0,302.0,5.0,0.0,1.0,6.0,334.6899999999999,419.3177554565746,3.41332811498617e-06,3061.438267684391
A-3518,"2,4-dimethylaniline","InChI=1S/C8H11N/c1-6-3-4-8(9)7(2)5-6/h3-5H,9H2,1-2H3",CZZZABOKJQXEBO-UHFFFAOYSA-N,Cc1ccc(N)c(C)c1,-1.3352536727,0.0,1,G1,121.183,1.88564,40.32840000000001,9.0,1.0,1.0,1.0,0.0,48.0,1.0,0.0,0.0,1.0,26.02,55.501178045302886,3.1716780304409156,215.80766205433727
A-3519,2-chloroaniline,"InChI=1S/C6H6ClN/c7-5-3-1-2-4-6(5)8/h1-4H,8H2",AKCRQHGQIJBRMN-UHFFFAOYSA-N,Nc1ccccc1Cl,-1.3575741458000001,0.11641806751905595,4,G5,127.574,1.9222,35.86440000000001,8.0,1.0,1.0,2.0,0.0,42.0,1.0,0.0,0.0,1.0,26.02,53.07456004339135,3.134861511345448,164.63833891467198
A-3521,phenyl diamidophosphate,"InChI=1S/C6H9N2O2P/c7-11(8,9)10-6-4-2-1-3-5-6/h1-5H,(H4,7,8,9)",AYRRNFHDJUXLEQ-UHFFFAOYSA-N,N[P](N)(=O)Oc1ccccc1,-1.4876534031,0.0,1,G1,172.124,1.0909000000000002,43.05130000000001,11.0,2.0,2.0,5.0,2.0,60.0,1.0,0.0,0.0,1.0,78.34,64.71341865276594,2.736661467071344,269.17058906924865
A-3523,"sodium 2-{[4-(cyclohexylamino)-9,10-dioxo-9,10-dihydroanthracen-1-yl]amino}-5-ethoxybenzene-1-sulfonate","InChI=1S/C28H28N2O6S.Na/c1-2-36-22-13-8-11-18-24(22)28(32)26-20(29-17-9-4-3-5-10-17)15-16-21(25(26)27(18)31)30-19-12-6-7-14-23(19)37(33,34)35;/h6-8,11-17,29-30H,2-5,9-10H2,1H3,(H,33,34,35);/q;+1/p-1",OOGKHVOWEZVKKU-UHFFFAOYSA-M,[Na+].CCOc1cccc2C(=O)c3c(Nc4ccccc4[S]([O-])(=O)=O)ccc(NC5CCCCC5)c3C(=O)c12,-1.9878367861000001,0.0,1,G1,542.5890000000003,2.2569999999999997,139.1015999999999,38.0,8.0,2.0,10.0,7.0,192.0,3.0,1.0,2.0,5.0,124.63,243.76169979809578,3.3619941024341892e-06,1499.1737656016358
A-3525,"2-methylpentane-1,5-diamine","InChI=1S/C6H16N2/c1-6(5-8)3-2-4-7/h6H,2-5,7-8H2,1H3",JZUHIOJYCPIVLQ-UHFFFAOYSA-N,CC(CN)CCCN,-1.3272487005,1.10812759155,2,G2,116.20800000000001,0.32010000000000016,36.50679999999999,8.0,2.0,2.0,2.0,4.0,50.0,0.0,0.0,0.0,0.0,52.04,51.24374299383801,2.862065598305084,45.79319390447951
A-3526,"6-amino-1,3-dimethyl-1,2,3,4-tetrahydropyrimidine-2,4-dione","InChI=1S/C6H9N3O2/c1-8-4(7)3-5(10)9(2)6(8)11/h3H,7H2,1-2H3",VFGRNTYELNYSKJ-UHFFFAOYSA-N,CN1C(=CC(=O)N(C)C1=O)N,-1.4535787311000001,0.0,1,G1,155.15699999999998,-1.3337999999999988,41.336400000000005,11.0,5.0,1.0,5.0,0.0,60.0,1.0,0.0,0.0,1.0,70.02,62.68346118047409,3.7357461747802896,387.7943610460352
A-3527,6-pent-3-en-1-yltetrahydro-2H-pyran-2-one,"InChI=1S/C10H16O2/c1-2-3-4-6-9-7-5-8-10(11)12-9/h2-3,9H,4-8H2,1H3/b3-2+",NBCMACYORPIYNY-NSCUHMNNSA-N,C/C=C/CCC1CCCC(=O)O1,-1.4887262913,0.014610102249999923,2,G3,168.236,2.4384000000000006,47.779000000000025,12.0,2.0,0.0,2.0,3.0,68.0,0.0,1.0,1.0,1.0,26.3,73.60336320123618,2.179877272903438,172.67739285527475
A-3528,potassium tetrafluoroboranuide,"InChI=1S/BF4.K/c2-1(3,4)5;/q-1;+1",AKEBROIVCDHVSD-UHFFFAOYSA-N,[K+].F[B-](F)(F)F,-1.3676388693000001,0.0,1,G1,125.90200000000002,-1.6960000000000002,10.186000000000002,6.0,0.0,0.0,6.0,0.0,32.0,0.0,0.0,0.0,0.0,0.0,74.81422737291244,0.0,23.019550008653873
A-3530,2-hydroxy-3-phenoxypropyl prop-2-enoate,"InChI=1S/C12H14O4/c1-2-8-15-12(14)11(13)9-16-10-6-4-3-5-7-10/h3-7,9,13H,2,8H2,1H3/b11-9-",FOKZHJCFBNVOAV-LUAWRHEFSA-N,CCCOC(=O)C(/O)=C/Oc1ccccc1,-1.6225463588,0.0,1,G1,222.24,2.418,59.03180000000003,16.0,4.0,1.0,4.0,5.0,86.0,1.0,0.0,0.0,1.0,55.760000000000005,94.11429908494593,2.4762076204837555,356.54132668856164
A-3532,"2,6-diamino-1,4-dihydropyrimidin-4-one","InChI=1S/C4H6N4O/c5-2-1-3(9)8-4(6)7-2/h1H,(H5,5,6,7,8,9)",SWELIMKTDYHAOY-UHFFFAOYSA-N,NC1=CC(=O)N=C(N)N1,-1.378146596,0.0,1,G1,126.11900000000001,-1.0657000000000003,33.6825,9.0,4.0,3.0,5.0,0.0,48.0,1.0,0.0,0.0,1.0,97.78999999999999,50.71200257545919,3.332334626732985,242.2652997875347
A-3533,3-amino-2-chloro-6-methylphenol,"InChI=1S/C7H8ClNO/c1-4-2-3-5(9)6(8)7(4)10/h2-3,10H,9H2,1H3",XYRDGCCCBJITBH-UHFFFAOYSA-N,Cc1ccc(N)c(Cl)c1O,-1.4815528695,0.0,1,G1,157.60000000000002,1.93622,42.26620000000001,10.0,2.0,2.0,3.0,0.0,54.0,1.0,0.0,0.0,1.0,46.25,64.23373590998396,3.3421538077705124,233.02817392215357
A-3534,Diazobarbituric acid,"InChI=1S/C4H2N4O3/c5-8-1-2(9)6-4(11)7-3(1)10/h(H2,6,7,9,10,11)",HBZLKQCYQCZGAN-UHFFFAOYSA-N,[N-]=[N+]=C1C(=O)NC(=O)NC1=O,-1.4717570191,0.0,1,G1,154.08499999999998,-1.9768000000000003,30.3078,11.0,3.0,2.0,7.0,0.0,56.0,0.0,1.0,1.0,1.0,111.66999999999999,59.994803544983355,3.0183232599750855,278.45903154683305
A-3536,"oxydipropane-1,2-diyl bisacrylate","InChI=1S/C12H18O5/c1-5-11(13)16-9(3)7-15-8-10(4)17-12(14)6-2/h5-6,9-10H,1-2,7-8H2,3-4H3",RNJVAUBBYGWVBF-UHFFFAOYSA-N,CC(COCC(C)OC(=O)C=C)OC(=O)C=C,-1.6682980883,0.0,1,G1,242.27099999999996,1.2384,62.321000000000026,17.0,5.0,0.0,5.0,8.0,96.0,0.0,0.0,0.0,0.0,61.830000000000005,101.03808811043193,3.6798382507018954,256.6205755355643
A-3537,pyridine-4-carboxylic acid,"InChI=1S/C6H5NO2/c8-6(9)5-1-3-7-4-2-5/h1-4H,(H,8,9)",TWBYWOBDOCUKOW-UHFFFAOYSA-N,OC(=O)c1ccncc1,-1.3759670992,0.0,1,G1,123.11099999999998,0.7797999999999999,31.196299999999994,9.0,2.0,1.0,3.0,1.0,46.0,1.0,0.0,0.0,1.0,50.19,51.971749067079855,2.981454614041131,207.5576620543373
A-3538,"1,4-dithiane-2,5-diol","InChI=1S/C4H8O2S2/c5-3-1-7-4(6)2-8-3/h3-6H,1-2H2",YUIOPHXTILULQC-UHFFFAOYSA-N,OC1CSC(O)CS1,-1.4690382322,0.0,1,G1,152.23999999999998,0.10319999999999996,36.92960000000001,8.0,4.0,2.0,4.0,0.0,48.0,0.0,1.0,1.0,1.0,40.46,56.662933772612654,2.1923771580194713,60.438561897747256
A-3539,6-chlorohexan-2-one,"InChI=1S/C6H11ClO/c1-6(8)4-2-3-5-7/h2-5H2,1H3",CMDIDTNMHQUVPE-UHFFFAOYSA-N,CC(=O)CCCCCl,-1.4155738757,0.0,1,G1,134.606,1.9845000000000002,35.251999999999995,8.0,1.0,0.0,2.0,4.0,48.0,0.0,0.0,0.0,0.0,17.07,55.02874992673803,2.8223545542480317,70.92878689342031
A-3540,"4-(3-methyl-5-oxo-4,5-dihydro-1H-pyrazol-1-yl)benzenesulfonic acid","InChI=1S/C10H10N2O4S/c1-7-6-10(13)12(11-7)8-2-4-9(5-3-8)17(14,15)16/h2-5H,6H2,1H3,(H,14,15,16)",CWJQQASJVVAXKL-UHFFFAOYSA-N,CC1=NN(C(=O)C1)c2ccc(cc2)[S](O)(=O)=O,-1.6926402974,0.0,1,G1,254.267,1.0459,61.46860000000002,17.0,4.0,1.0,7.0,2.0,90.0,1.0,0.0,1.0,2.0,87.03999999999999,98.30079070993702,2.3388863280072325,589.2368422282899
A-3542,toluenesulphonamide,"InChI=1S/C7H9NO2S/c1-6-4-2-3-5-7(6)11(8,9)10/h2-5H,1H3,(H2,8,9,10)",YCMLQMDWSXFTIF-UHFFFAOYSA-N,Cc1ccccc1[S](N)(=O)=O,-1.5259868531,0.2517250967,2,G3,171.22099999999998,0.6424200000000001,42.55220000000001,11.0,2.0,1.0,4.0,1.0,60.0,1.0,0.0,0.0,1.0,60.160000000000004,65.89701182332136,3.3721948109608206,356.4582525456591
A-3543,1-(6-methyl-2-oxohexahydropyrimidin-4-yl)urea,"InChI=1S/C6H12N4O2/c1-3-2-4(9-5(7)11)10-6(12)8-3/h3-4H,2H2,1H3,(H3,7,9,11)(H2,8,10,12)",CZAUMIGWDFREBR-UHFFFAOYSA-N,CC1CC(NC(N)=O)NC(=O)N1,-1.5314234319,0.0,1,G1,172.18800000000002,-0.9277999999999988,42.253499999999995,12.0,2.0,4.0,6.0,1.0,68.0,0.0,1.0,1.0,1.0,96.25,69.87065189420773,2.4382761528053187,203.724766224368
A-3544,"2-methylbenzene-1,4-diamine; sulfuric acid","InChI=1S/C7H10N2.H2O4S/c1-5-4-6(8)2-3-7(5)9;1-5(2,3)4/h2-4H,8-9H2,1H3;(H2,1,2,3,4)",KZTWOUOZKZQDMN-UHFFFAOYSA-N,Cc1cc(N)ccc1N.O[S](O)(=O)=O,-1.641347932,0.0,1,G1,220.25000000000003,0.5066200000000003,54.181200000000004,14.0,4.0,4.0,7.0,0.0,80.0,1.0,0.0,0.0,1.0,126.63999999999999,82.11383141974288,2.9177777140296316e-07,394.1508637469252
A-3547,3-(trifluoromethyl)aniline,"InChI=1S/C7H6F3N/c8-7(9,10)5-2-1-3-6(11)4-5/h1-4H,11H2",VIUDTWATMPPKEL-UHFFFAOYSA-N,Nc1cccc(c1)C(F)(F)F,-1.5081956213999999,0.033163723563178246,4,G5,161.12599999999998,2.2876000000000003,35.856400000000015,11.0,1.0,1.0,4.0,0.0,60.0,1.0,0.0,0.0,1.0,26.02,61.63284213968499,3.0599016922179834,254.10775327612674
A-3548,"4,4'-methylenebis(cyclohexylamine)","InChI=1S/C13H26N2/c14-12-5-1-10(2-6-12)9-11-3-7-13(15)8-4-11/h10-13H,1-9,14-15H2",DZIHTWJGPDVSGE-UHFFFAOYSA-N,NC1CCC(CC1)CC2CCC(N)CC2,-1.6240034803,0.2115472306637847,3,G5,210.36499999999995,2.4115,64.48380000000004,15.0,2.0,2.0,2.0,2.0,88.0,0.0,2.0,2.0,2.0,52.04,93.78667548755584,1.6812348546385059,156.9749743550015
A-3549,"N-(2,5-dimethoxyphenyl)acetamide","InChI=1S/C10H13NO3/c1-7(12)11-9-6-8(13-2)4-5-10(9)14-3/h4-6H,1-3H3,(H,11,12)",HOZRMSVNIKYCMB-UHFFFAOYSA-N,COc1ccc(OC)c(NC(C)=O)c1,-1.5915498548,0.0,1,G1,195.218,1.6622,53.84970000000003,14.0,3.0,1.0,4.0,3.0,76.0,1.0,0.0,0.0,1.0,47.56,82.82964631974899,3.013413545094133,336.13903760611623
A-3551,potassium 4-(propan-2-yl)benzene-1-sulfonate,"InChI=1S/C9H12O3S.K/c1-7(2)8-3-5-9(6-4-8)13(10,11)12;/h3-7H,1-2H3,(H,10,11,12);/q;+1/p-1",RVRONQZKSCNZRS-UHFFFAOYSA-M,[K+].CC(C)c1ccc(cc1)[S]([O-])(=O)=O,0.3208872115,0.0,1,G1,238.34899999999996,-1.281899999999999,48.49420000000003,14.0,3.0,0.0,5.0,2.0,72.0,1.0,0.0,0.0,1.0,57.199999999999996,127.07743016809,1.6899995216001402e-06,381.0230231883477
A-3552,ammonium carbamate,"InChI=1S/CH3NO2.H3N.H2O/c2-1(3)4;;/h2H2,(H,3,4);1H3;1H2",SFWLALIEAXEULE-UHFFFAOYSA-N,[NH4+].O.NC([O-])=O,0.7115939977,0.0,1,G1,96.08599999999998,-2.1601000000000004,19.182000000000002,6.0,2.0,2.0,5.0,0.0,40.0,0.0,0.0,0.0,0.0,134.15,34.651401369443036,-4.4999999250000016e-08,31.774437510817343
A-3553,sodium 4-(propan-2-yl)benzene-1-sulfonate,"InChI=1S/C9H12O3S.Na/c1-7(2)8-3-5-9(6-4-8)13(10,11)12;/h3-7H,1-2H3,(H,10,11,12);/q;+1/p-1",QEKATQBVVAZOAY-UHFFFAOYSA-M,[Na+].CC(C)c1ccc(cc1)[S]([O-])(=O)=O,0.3460227367,0.0,1,G1,222.24099999999999,-1.281899999999999,48.49420000000003,14.0,3.0,0.0,5.0,2.0,72.0,1.0,0.0,0.0,1.0,57.199999999999996,106.56826509543934,1.6899995216001402e-06,381.0230231883477
A-3555,trimethyl-3-[(1-oxo-10-undecenyl)amino]propylammonium methyl sulphate,"InChI=1S/C17H34N2O.CH4O4S/c1-5-6-7-8-9-10-11-12-14-17(20)18-15-13-16-19(2,3)4;1-5-6(2,3)4/h5H,1,6-16H2,2-4H3;1H3,(H,2,3,4)",MQMUSWOUVRONBK-UHFFFAOYSA-N,CO[S]([O-])(=O)=O.C[N+](C)(C)CCCNC(=O)CCCCCCCCC=C,0.09406321289999998,0.0,1,G1,394.5780000000003,2.5987,104.36530000000008,26.0,5.0,1.0,8.0,14.0,156.0,0.0,0.0,0.0,0.0,95.53,159.8918696499729,0.0,458.69213607132355
A-3557,"disodium bicyclo[3.3.1]tetraboroxane-3,7-bis(olate)",InChI=1S/B4O7.2Na.10H2O/c5-1-9-3(7)11-4(8)10-2-6;;;;;;;;;;;;/h;;;10*1H2/q-2;2*+1;;;;;;;;;;,OJPFLODMGUZMKD-UHFFFAOYSA-N,O.O.O.O.O.O.O.O.O.O.[Na+].[Na+].[O-]B(OB=O)OB([O-])OB=O,-0.8846418846999999,0.0,1,G1,381.37100000000015,-18.583000000000013,63.78200000000007,23.0,7.0,0.0,23.0,6.0,136.0,0.0,0.0,0.0,0.0,422.95000000000005,175.19205472556806,-7.575757387310611e-09,123.7617745563111
A-3558,2-aminopyridin-3-ol,"InChI=1S/C5H6N2O/c6-5-4(8)2-1-3-7-5/h1-3,8H,(H2,6,7)",BMTSZVZQNMNPCT-UHFFFAOYSA-N,Nc1ncccc1O,-0.3461061519,0.0,1,G1,110.11599999999997,0.3694,30.3142,8.0,3.0,2.0,3.0,0.0,42.0,1.0,0.0,0.0,1.0,59.14,46.7851755496522,3.134861511345448,166.5384734445621
A-3560,1-ethenylazepan-2-one,"InChI=1S/C8H13NO/c1-2-9-7-5-3-4-6-8(9)10/h2H,1,3-7H2",JWYVGKFDLWWQJX-UHFFFAOYSA-N,C=CN1CCCCCC1=O,-0.4507860761,0.0,1,G1,139.198,1.5325,40.37800000000001,10.0,1.0,0.0,2.0,1.0,56.0,0.0,1.0,1.0,1.0,20.310000000000002,61.51976741313946,2.5093871295823527,142.1930175513852
A-3561,3-methyl-4-oxobut-2-en-1-yl acetate,"InChI=1S/C7H10O3/c1-6(5-8)3-4-10-7(2)9/h3,5H,4H2,1-2H3/b6-3+",LPDDKAJRWGPGSI-ZZXKWVIFSA-N,CC(=O)OC\C=C(/C)C=O,-0.4607939818,0.0,1,G1,142.154,0.6947000000000001,36.454,10.0,3.0,0.0,3.0,3.0,56.0,0.0,0.0,0.0,0.0,43.370000000000005,59.67589011161935,3.5235688343516944,158.23415450316315
A-3562,boric acid,InChI=1S/BH3O3/c2-1(3)4/h2-4H,KGBXLFKZBHKPEV-UHFFFAOYSA-N,OB(O)O,-0.0992552152,0.05386989199120631,3,G5,61.83300000000001,-2.0518,12.4104,4.0,3.0,3.0,4.0,0.0,24.0,0.0,0.0,0.0,0.0,60.69,23.684517280895907,2.3237900077244498,8.0
A-3563,calcium hydrogen borate,InChI=1S/2BO3.3Ca/c2*2-1(3)4;;;/q2*-3;3*+2,VLCLHFYFMCKBRP-UHFFFAOYSA-N,[Ca++].[Ca++].[Ca++].[O-]B([O-])[O-].[O-]B([O-])[O-],-0.6843417048,0.05386989196228087,3,G5,237.852,-9.038,28.769999999999996,11.0,6.0,0.0,11.0,0.0,48.0,0.0,0.0,0.0,0.0,138.35999999999999,154.34786078756062,-1.7142857044897958e-08,31.298860302846805
A-3564,hexapotassium dihydrogen borate hydrogen borate borate,InChI=1S/BH3O3.K/c2-1(3)4;/h2-4H;,AENYAMPVQFAKHY-UHFFFAOYSA-N,[K].OB(O)O,-0.3120594734,0.053869891962280855,3,G5,100.93099999999998,-2.4326,18.1644,5.0,3.0,3.0,5.0,0.0,25.0,0.0,0.0,0.0,0.0,60.69,72.60708197625848,0.0,11.609640474436814
A-3566,"2,2-bis(hydroxymethyl)butanoic acid","InChI=1S/C6H12O4/c1-2-6(3-7,4-8)5(9)10/h7-8H,2-4H2,1H3,(H,9,10)",JVYDLYGCSIHCMR-UHFFFAOYSA-N,CCC(CO)(CO)C(O)=O,0.5168038544,0.0,1,G1,148.158,-0.5480000000000003,34.53139999999999,10.0,3.0,3.0,4.0,4.0,60.0,0.0,0.0,0.0,0.0,77.75999999999999,59.10818495644438,4.305619426082996,108.65156130631185
A-3567,lead(2+) ion dinitrate,InChI=1S/2NO3.Pb/c2*2-1(3)4;/q2*-1;+2,RLJMLMKIBZAXJO-UHFFFAOYSA-N,[Pb++].[O-][N+]([O-])=O.[O-][N+]([O-])=O,0.16653545109999998,0.0,1,G1,331.2080000000001,-0.8590000000000002,26.476800000000004,9.0,6.0,0.0,9.0,0.0,50.0,0.0,0.0,0.0,0.0,132.4,68.46518758887134,-7.199999951999999e-08,69.05865002596163
A-3569,trisodium 2-({2-[bis(carboxylatomethyl)amino]ethyl}(2-hydroxyethyl)amino)acetate,"InChI=1S/C10H18N2O7.3Na/c13-4-3-11(5-8(14)15)1-2-12(6-9(16)17)7-10(18)19;;;/h13H,1-7H2,(H,14,15)(H,16,17)(H,18,19);;;/q;3*+1/p-3",WHNXAQZPEBNFBC-UHFFFAOYSA-K,[Na+].[Na+].[Na+].OCCN(CCN(CC([O-])=O)CC([O-])=O)CC([O-])=O,0.1444215392,0.00886438349999999,2,G3,344.20700000000005,-15.155599999999998,54.98680000000003,22.0,9.0,1.0,12.0,11.0,110.0,0.0,0.0,0.0,0.0,147.1,194.44509757485696,-5.399998610750369e-07,317.6420139485665
A-3577,"disodium 5-({4-[bis(2-hydroxyethyl)amino]-6-(phenylamino)-1,3,5-triazin-2-yl}amino)-2-{2-[4-({4-[bis(2-hydroxyethyl)amino]-6-(phenylamino)-1,3,5-triazin-2-yl}amino)-2-sulfonatophenyl]ethenyl}benzene-1-sulfonate","InChI=1S/C40H44N12O10S2.2Na/c53-21-17-51(18-22-54)39-47-35(41-29-7-3-1-4-8-29)45-37(49-39)43-31-15-13-27(33(25-31)63(57,58)59)11-12-28-14-16-32(26-34(28)64(60,61)62)44-38-46-36(42-30-9-5-2-6-10-30)48-40(50-38)52(19-23-55)20-24-56;;/h1-16,25-26,53-56H,17-24H2,(H,57,58,59)(H,60,61,62)(H2,41,43,45,47,49)(H2,42,44,46,48,50);;/q;2*+1/p-2/b12-11+;;",YJHDFAAFYNRKQE-YHPRVSEPSA-L,[Na+].[Na+].OCCN(CCO)c1nc(Nc2ccccc2)nc(Nc3ccc(\C=C\c4ccc(Nc5nc(Nc6ccccc6)nc(n5)N(CCO)CCO)cc4[S]([O-])(=O)=O)c(c3)[S]([O-])(=O)=O)n1,-1.29966008,0.0,1,G1,960.9639999999999,-3.400399999999988,236.1763999999996,66.0,22.0,8.0,26.0,22.0,336.0,6.0,0.0,0.0,6.0,327.25999999999993,423.9747024964059,4.7609870979563814e-06,2588.119193684628