ID,Name,InChI,InChIKey,SMILES,Solubility,SD,Ocurrences,Group,MolWt,MolLogP,MolMR,HeavyAtomCount,NumHAcceptors,NumHDonors,NumHeteroatoms,NumRotatableBonds,NumValenceElectrons,NumAromaticRings,NumSaturatedRings,NumAliphaticRings,RingCount,TPSA,LabuteASA,BalabanJ,BertzCT
A-1325,2-(2-butoxyethoxy)ethyl 2-methylprop-2-enoate,"InChI=1S/C12H22O4/c1-4-5-6-14-7-8-15-9-10-16-12(13)11(2)3/h2,4-10H2,1,3H3",QGTBRAFPWNISIJ-UHFFFAOYSA-N,CCCCOCCOCCOC(=O)C(C)=C,-2.0159485066,0.03094349545000008,2,G3,230.30399999999995,1.9389999999999998,62.319000000000045,16.0,4.0,0.0,4.0,10.0,94.0,0.0,0.0,0.0,0.0,44.760000000000005,97.5661690425724,3.096935057347562,201.19544121138716
A-1327,"4-[1,1,1,3,3,3-hexafluoro-2-(4-hydroxyphenyl)propan-2-yl]phenol","InChI=1S/C15H10F6O2/c16-14(17,18)13(15(19,20)21,9-1-5-11(22)6-2-9)10-3-7-12(23)8-4-10/h1-8,22-23H",ZFVMWEVVKGLCIJ-UHFFFAOYSA-N,Oc1ccc(cc1)C(c2ccc(O)cc2)(C(F)(F)F)C(F)(F)F,-3.1795029693,0.0,1,G1,336.231,4.5085000000000015,69.1036,23.0,2.0,2.0,8.0,2.0,124.0,2.0,0.0,0.0,2.0,40.46,126.16500359070025,2.8616851652637383,609.5986688980878
A-1328,1-(naphthalen-1-yl)ethan-1-one,"InChI=1S/C12H10O/c1-9(13)11-8-4-6-10-5-2-3-7-12(10)11/h2-8H,1H3",QQLIGMASAVJVON-UHFFFAOYSA-N,CC(=O)c1cccc2ccccc12,-2.8846346488,0.0,1,G1,170.21099999999998,3.0424000000000015,53.95250000000003,13.0,1.0,0.0,1.0,1.0,64.0,2.0,0.0,0.0,2.0,17.07,77.00447398006915,2.8309756583676706,452.1360595287063
A-1329,4-(propan-2-yl)aniline,"InChI=1S/C9H13N/c1-7(2)8-3-5-9(10)6-4-8/h3-7H,10H2,1-2H3",LRTFPLFDLJYEKT-UHFFFAOYSA-N,CC(C)c1ccc(N)cc1,-1.7858311962,0.0,1,G1,135.20999999999998,2.3922000000000008,44.943400000000025,10.0,1.0,1.0,1.0,1.0,54.0,1.0,0.0,0.0,1.0,26.02,61.8661201596995,2.893762783606677,198.47318047941275
A-1333,4-methoxyaniline,"InChI=1S/C7H9NO/c1-9-7-4-2-6(8)3-5-7/h2-5H,8H2,1H3",BHAAPTBBJKJZER-UHFFFAOYSA-N,COc1ccc(N)cc1,-0.7480293677,0.010101693050000027,2,G3,123.15499999999999,1.2773999999999999,37.4064,9.0,2.0,1.0,2.0,1.0,48.0,1.0,0.0,0.0,1.0,35.25,54.249781160413164,2.881555877646136,180.61256853719752
A-1334,pentan-1-ol,"InChI=1S/C5H12O/c1-2-3-4-5-6/h6H,2-5H2,1H3",AMQJEAYHLZJPGS-UHFFFAOYSA-N,CCCCCO,-0.6027996358,0.010101693050000027,2,G3,88.14999999999999,1.1689,26.61079999999999,6.0,1.0,1.0,1.0,3.0,38.0,0.0,0.0,0.0,0.0,20.23,38.99325323761199,2.3390923149762908,15.900134529890124
A-1335,2-methoxy-5-nitroaniline,"InChI=1S/C7H8N2O3/c1-12-7-3-2-5(9(10)11)4-6(7)8/h2-4H,8H2,1H3",NIPDVSLAMPAWTP-UHFFFAOYSA-N,COc1ccc(cc1N)[N+]([O-])=O,-1.8832793563999999,0.6408624202000001,2,G2,168.152,1.1856,44.06080000000001,12.0,4.0,1.0,5.0,2.0,64.0,1.0,0.0,0.0,1.0,78.38999999999999,68.90275688291297,3.0981803500525973,311.5198400095355
A-1336,prop-2-en-1-yl 2-methylprop-2-enoate,"InChI=1S/C7H10O2/c1-4-5-9-7(8)6(2)3/h4H,1-2,5H2,3H3",FBCQUCJYYPMKRO-UHFFFAOYSA-N,CC(=C)C(=O)OCC=C,-1.7584817871,0.008043409949999969,2,G3,126.15499999999999,1.2917,35.97,9.0,2.0,0.0,2.0,3.0,50.0,0.0,0.0,0.0,0.0,26.3,54.824764979391325,3.5084051218843633,135.85157716108912
A-1337,"1,1,2,2,3,3,4,4-octafluoro-1,4-diiodobutane","InChI=1S/C4F8I2/c5-1(6,3(9,10)13)2(7,8)4(11,12)14",JILAKKYYZPDQBE-UHFFFAOYSA-N,FC(F)(I)C(F)(F)C(F)(F)C(F)(F)I,-3.314476262,0.0,1,G1,453.83599999999996,4.3126,47.828,14.0,0.0,0.0,10.0,3.0,86.0,0.0,0.0,0.0,0.0,0.0,99.68203683651652,5.300082077607573,188.3616189347681
A-1339,"2,6-di-tert-butyl-4-(hydroxymethyl)phenol","InChI=1S/C15H24O2/c1-14(2,3)11-7-10(9-16)8-12(13(11)17)15(4,5)6/h7-8,16-17H,9H2,1-6H3",HNURKXXMYARGAY-UHFFFAOYSA-N,CC(C)(C)c1cc(CO)cc(c1O)C(C)(C)C,-4.0127821042,0.0,1,G1,236.35499999999996,3.4795000000000025,71.42960000000005,17.0,2.0,2.0,2.0,1.0,96.0,1.0,0.0,0.0,1.0,40.46,104.30434965345846,3.5327462243952046,370.9056007735593
A-1341,[2-(3-methylbutoxy)ethyl]benzene,"InChI=1S/C13H20O/c1-12(2)8-10-14-11-9-13-6-4-3-5-7-13/h3-7,12H,8-11H2,1-2H3",BHQBQWOZHYUVTL-UHFFFAOYSA-N,CC(C)CCOCCc1ccccc1,-3.9337357827,0.0,1,G1,192.30200000000002,3.291800000000002,60.42000000000005,14.0,1.0,0.0,1.0,6.0,78.0,1.0,0.0,0.0,1.0,9.23,87.09954314978012,2.047929619325098,228.2506956971763
A-1343,2-hydroxynaphthalene-1-carbaldehyde,"InChI=1S/C11H8O2/c12-7-10-9-4-2-1-3-8(9)5-6-11(10)13/h1-7,13H",NTCCNERMXRIPTR-UHFFFAOYSA-N,Oc1ccc2ccccc2c1C=O,-3.8935675896,0.0,1,G1,172.18299999999996,2.3579,51.00030000000002,13.0,2.0,1.0,2.0,1.0,64.0,2.0,0.0,0.0,2.0,37.3,75.43376561786856,2.9117844920054865,460.5969742301865
A-1345,"5-nitropyrimidine-2,4,6-triamine","InChI=1S/C4H6N6O/c5-2-1(10-11)3(6)9-4(7)8-2/h(H6,5,6,7,8,9)",XLQQJSWJHHKLOK-UHFFFAOYSA-N,Nc1nc(N)c(N=O)c(N)n1,-3.8454729507,0.0,1,G1,154.13299999999998,-0.3789000000000002,40.72419999999999,11.0,7.0,3.0,7.0,1.0,58.0,1.0,0.0,0.0,1.0,133.26999999999998,61.58510315665862,3.3573214474517448,273.6289117242989
A-1346,"1,3-dichloroprop-1-ene","InChI=1S/C3H4Cl2/c4-2-1-3-5/h1-2H,3H2/b2-1-",UOORRWUZONOOLO-UPHRSURJSA-N,ClC\C=C/Cl,-1.706753006,0.17379495294279437,4,G5,110.971,1.9777,25.712999999999994,5.0,0.0,0.0,2.0,1.0,30.0,0.0,0.0,0.0,0.0,0.0,41.386064678201855,2.622415807990217,31.87430298092722
A-1347,4-[4-[[4-chloro-3-(trifluoromethyl)phenyl]carbamoylamino]phenoxy]-N-methylpyridine-2-carboxamide,"InChI=1S/C21H16ClF3N4O3/c1-26-19(30)18-11-15(8-9-27-18)32-14-5-2-12(3-6-14)28-20(31)29-13-4-7-17(22)16(10-13)21(23,24)25/h2-11H,1H3,(H,26,30)(H2,28,29,31)",MLDQJTXFUGDVEO-UHFFFAOYSA-N,CNC(=O)c1cc(Oc2ccc(NC(=O)Nc3ccc(Cl)c(c3)C(F)(F)F)cc2)ccn1,-6.6672950838,0.0,1,G1,464.83100000000013,5.549700000000002,113.2386,32.0,4.0,3.0,11.0,5.0,166.0,3.0,0.0,0.0,3.0,92.35000000000001,185.11105638623687,1.6244376001208218,1137.8789445127009
A-1348,2-methoxy-4-(methoxymethyl)phenol,"InChI=1S/C9H12O3/c1-11-6-7-3-4-8(10)9(5-7)12-2/h3-5,10H,6H2,1-2H3",USDDPDQEVLAOBO-UHFFFAOYSA-N,COCc1ccc(O)c(OC)c1,-1.8934476813999999,0.0,1,G1,168.19199999999998,1.5472,45.37180000000003,12.0,3.0,1.0,3.0,3.0,66.0,1.0,0.0,0.0,1.0,38.69,71.54755367389656,2.8886510104905314,257.95060242335626
A-1349,3-pentyloxan-4-yl acetate,"InChI=1S/C12H22O3/c1-3-4-5-6-11-9-14-8-7-12(11)15-10(2)13/h11-12H,3-9H2,1-2H3",VSRVCSJJKWDZSH-UHFFFAOYSA-N,CCCCCC1COCCC1OC(C)=O,-2.9987958882999997,0.0,1,G1,214.30499999999995,2.5349000000000004,58.62200000000005,15.0,3.0,0.0,3.0,5.0,88.0,0.0,1.0,1.0,1.0,35.53,92.13639569172052,2.3181849864239865,191.3062531800184
A-1350,"4-[(E)-2-phenyldiazen-1-yl]benzene-1,3-diamine","InChI=1S/C12H12N4/c13-9-6-7-12(11(14)8-9)16-15-10-4-2-1-3-5-10/h1-8H,13-14H2",IWRVPXDHSLTIOC-UHFFFAOYSA-N,Nc1ccc(N=Nc2ccccc2)c(N)c1,-2.9976655605,0.0,1,G1,212.25600000000003,3.2664,65.88480000000003,16.0,4.0,2.0,4.0,2.0,80.0,2.0,0.0,0.0,2.0,76.75999999999999,93.6150565640755,2.2421519865382917,505.682139382656
A-1351,2-tert-Butyl-4-methoxyphenol,"InChI=1S/C11H16O2/c1-11(2,3)9-7-8(13-4)5-6-10(9)12/h5-7,12H,1-4H3",MRBKEAMVRSLQPH-UHFFFAOYSA-N,COc1ccc(O)c(c1)C(C)(C)C,-2.9274884417,0.0,1,G1,180.24699999999996,2.6983000000000006,53.35880000000004,13.0,2.0,1.0,2.0,1.0,72.0,1.0,0.0,0.0,1.0,29.46,79.16389267318289,3.1917026765307637,297.44885548394535
A-1352,4-piperidin-4-ylmorpholine,"InChI=1S/C9H18N2O/c1-3-10-4-2-9(1)11-5-7-12-8-6-11/h9-10H,1-8H2",YYBXNWIRMJXEQJ-UHFFFAOYSA-N,C1CC(CCN1)N2CCOCC2,-2.9027228224,0.0,1,G1,170.256,0.07059999999999977,48.283700000000024,12.0,3.0,1.0,3.0,1.0,70.0,0.0,2.0,2.0,2.0,24.5,74.07036671926224,1.7997325191361424,112.49022499567306
A-1354,triethoxy(2-methylpropyl)silane,"InChI=1S/C10H24O3Si/c1-6-11-14(12-7-2,13-8-3)9-10(4)5/h10H,6-9H2,1-5H3",ALVYUZIFSCKIFP-UHFFFAOYSA-N,CCO[Si](CC(C)C)(OCC)OCC,-3.016846171,0.19591870484999996,2,G3,220.38499999999993,2.690800000000001,60.27700000000005,14.0,3.0,0.0,4.0,8.0,86.0,0.0,0.0,0.0,0.0,27.69,89.11533857802152,4.368125379625989,122.30925044911548
A-1355,"3,4-dihydroxy-5-nitrobenzaldehyde","InChI=1S/C7H5NO5/c9-3-4-1-5(8(12)13)7(11)6(10)2-4/h1-3,10-11H",BBFJODMCHICIAA-UHFFFAOYSA-N,Oc1cc(C=O)cc(c1O)[N+]([O-])=O,-1.937833911,0.0,1,G1,183.11899999999997,0.8184999999999998,41.81350000000001,13.0,5.0,2.0,6.0,2.0,68.0,1.0,0.0,0.0,1.0,100.66999999999999,72.19931056082916,3.4088659239693615,373.39080559771924
A-1357,ethyl 2-methyl-2-phenylpropanoate,"InChI=1S/C12H16O2/c1-4-14-11(13)12(2,3)10-8-6-5-7-9-10/h5-9H,4H2,1-3H3",OFYSAFPKXXTYLU-UHFFFAOYSA-N,CCOC(=O)C(C)(C)c1ccccc1,-3.045838317,0.0,1,G1,192.258,2.5273000000000003,56.10100000000004,14.0,2.0,0.0,2.0,3.0,76.0,1.0,0.0,0.0,1.0,26.3,84.89612313542726,2.9015787024133726,301.3575848525983
A-1360,4-methyl-2-nitroaniline,"InChI=1S/C7H8N2O2/c1-5-2-3-6(8)7(4-5)9(10)11/h2-4H,8H2,1H3",DLURHXYXQYMPLT-UHFFFAOYSA-N,Cc1ccc(N)c(c1)[N+]([O-])=O,-1.860061225,0.0,1,G1,152.15300000000002,1.48542,42.24580000000001,11.0,3.0,1.0,4.0,1.0,58.0,1.0,0.0,0.0,1.0,69.16,63.789211653406085,3.232208870305491,296.4920897763861
A-1361,dithioxomethane,InChI=1S/CS2/c2-1-3,QGJOPFRUJISHPQ-UHFFFAOYSA-N,S=C=S,-1.5594220963,0.13050191005968925,5,G5,76.14500000000001,1.0181,20.189,3.0,2.0,0.0,2.0,0.0,16.0,0.0,0.0,0.0,0.0,0.0,29.456811522239306,3.2659863237109046,23.774437510817343
A-1362,methyl benzoate,"InChI=1S/C8H8O2/c1-10-8(9)7-5-3-2-4-6-7/h2-6H,1H3",QPJVMBTYPHYUOC-UHFFFAOYSA-N,COC(=O)c1ccccc1,-1.8117983509,0.019100824550000062,2,G3,136.14999999999998,1.4732,37.781500000000015,10.0,2.0,0.0,2.0,1.0,52.0,1.0,0.0,0.0,1.0,26.3,59.43635467784082,2.8526279288191434,215.9590174505521
A-1363,"1,1-dimethoxyoctane","InChI=1S/C10H22O2/c1-4-5-6-7-8-9-10(11-2)12-3/h10H,4-9H2,1-3H3",BZOOCKAFKVYAOZ-UHFFFAOYSA-N,CCCCCCCC(OC)OC,-2.9180054187,0.0,1,G1,174.284,2.9658000000000015,51.18200000000004,12.0,2.0,0.0,2.0,8.0,74.0,0.0,0.0,0.0,0.0,18.46,76.25082051641277,3.062399016717871,79.9077646698008
A-1364,"1,4,7,10-tetrazacyclododecane","InChI=1S/C8H20N4/c1-2-10-5-6-12-8-7-11-4-3-9-1/h9-12H,1-8H2",QBPPRVHXOZRESW-UHFFFAOYSA-N,C1CNCCNCCNCCN1,-0.0310204156,0.0,1,G1,172.276,-1.6415999999999973,51.47880000000002,12.0,4.0,4.0,4.0,0.0,72.0,0.0,1.0,1.0,1.0,48.12,74.48746340950875,2.0000000000000004,54.03910001730775
A-1366,undec-10-enal,"InChI=1S/C11H20O/c1-2-3-4-5-6-7-8-9-10-11-12/h2,11H,1,3-10H2",OFHHDSQXFXLTKC-UHFFFAOYSA-N,C=CCCCCCCCCC=O,-3.8931862,0.0,1,G1,168.28,3.4921000000000024,53.197000000000045,12.0,1.0,0.0,1.0,9.0,70.0,0.0,0.0,0.0,0.0,17.07,75.86059123965516,2.8073211053704865,93.57174002125652
A-1367,"1-methyl 1,2,2,6,6-pentamethylpiperidin-4-yl decanedioate bis(1,2,2,6,6-pentamethylpiperidin-4-yl) decanedioate","InChI=1S/C30H56N2O4.C21H39NO4/c1-27(2)19-23(20-28(3,4)31(27)9)35-25(33)17-15-13-11-12-14-16-18-26(34)36-24-21-29(5,6)32(10)30(7,8)22-24;1-20(2)15-17(16-21(3,4)22(20)5)26-19(24)14-12-10-8-7-9-11-13-18(23)25-6/h23-24H,11-22H2,1-10H3;17H,7-16H2,1-6H3",YHEPZZFDBQOSSN-UHFFFAOYSA-N,COC(=O)CCCCCCCCC(=O)OC1CC(C)(C)N(C)C(C)(C)C1.CN2C(C)(C)CC(CC2(C)C)OC(=O)CCCCCCCCC(=O)OC3CC(C)(C)N(C)C(C)(C)C3,-4.6112212345,0.07088890205000009,2,G3,878.3339999999994,10.971199999999994,250.99299999999872,62.0,11.0,0.0,11.0,21.0,362.0,0.0,3.0,3.0,3.0,114.92000000000002,379.35446476941394,4.5051277898947286e-07,1288.8030526746238
A-1370,2-[4-(2-methylpropyl)phenyl]propanoic acid,"InChI=1S/C13H18O2/c1-9(2)8-11-4-6-12(7-5-11)10(3)13(14)15/h4-7,9-10H,8H2,1-3H3,(H,14,15)",HEFNNWSXXWATRW-UHFFFAOYSA-N,CC(C)Cc1ccc(cc1)C(C)C(O)=O,-3.9922483547000005,0.31775086363420363,4,G5,206.28499999999997,3.073200000000001,61.03480000000004,15.0,1.0,1.0,2.0,4.0,82.0,1.0,0.0,0.0,1.0,37.3,90.94175377251301,2.7590371332701524,324.89411900215663
A-1371,sodium perchlorate,"InChI=1S/ClHO4.Na/c2-1(3,4)5;/h(H,2,3,4,5);/q;+1/p-1",BAZAXWOYCMUHIX-UHFFFAOYSA-M,[Na+].[O-][Cl](=O)(=O)=O,-1.7665284956,0.0,1,G1,122.439,-7.752000000000001,0.0,6.0,4.0,0.0,6.0,0.0,32.0,0.0,0.0,0.0,0.0,92.24,58.425301811901555,0.0,23.019550008653873
A-1376,"N-ethyl-N'-isopropyl-6-(methylsulfanyl)-1,3,5-triazine-2,4-diamine","InChI=1S/C9H17N5S/c1-5-10-7-12-8(11-6(2)3)14-9(13-7)15-4/h6H,5H2,1-4H3,(H2,10,11,12,13,14)",RQVYBGPQFYCBGX-UHFFFAOYSA-N,CCNc1nc(NC(C)C)nc(SC)n1,-3.0470399572000004,0.01653465538814702,3,G5,227.337,1.8455999999999997,64.53040000000003,15.0,6.0,2.0,6.0,5.0,84.0,1.0,0.0,0.0,1.0,62.730000000000004,94.50283414129746,2.89174703245098,315.37105540415854
A-1377,1-(3-methoxyphenyl)ethan-1-one,"InChI=1S/C9H10O2/c1-7(10)8-4-3-5-9(6-8)11-2/h3-6H,1-2H3",BAYUSCHCCGXLAY-UHFFFAOYSA-N,COc1cccc(c1)C(C)=O,-1.8691073865,0.07214519880000014,2,G3,150.17699999999996,1.8978,42.99850000000002,11.0,2.0,0.0,2.0,2.0,58.0,1.0,0.0,0.0,1.0,26.3,65.80129679223744,3.0058892189147386,266.0201725709103
A-1381,1H-benzimidazole,"InChI=1S/C7H6N2/c1-2-4-7-6(3-1)8-5-9-7/h1-5H,(H,8,9)",HYZJCKYKOHLVJF-UHFFFAOYSA-N,[nH]1cnc2ccccc12,-1.769197233,0.0,1,G1,118.13899999999995,1.5629,36.09370000000001,9.0,1.0,1.0,2.0,0.0,44.0,2.0,0.0,0.0,2.0,28.68,52.54187605319297,2.954659790285104,280.89393676634353
A-1382,cyanuric acid,"InChI=1S/C3H3N3O3/c7-1-4-2(8)6-3(9)5-1/h(H3,4,5,6,7,8,9)",ZFSLODLOARCGLH-UHFFFAOYSA-N,O=C1NC(=O)NC(=O)N1,-1.8076460763,0.22351771301211734,3,G5,129.075,-2.2485000000000004,28.304100000000002,9.0,3.0,3.0,6.0,0.0,48.0,1.0,0.0,0.0,1.0,98.57999999999998,47.57491336246779,3.7180092596903305,276.8037297913861
A-1383,"1-(3-chloropropyl)-2,3-dihydro-1H-1,3-benzodiazol-2-one","InChI=1S/C10H11ClN2O/c11-6-3-7-13-9-5-2-1-4-8(9)12-10(13)14/h1-2,4-5H,3,6-7H2,(H,12,14)",GUMPYDGUYXOYML-UHFFFAOYSA-N,ClCCCN1C(=O)Nc2ccccc12,-3.0203942687,0.0,1,G1,210.66400000000002,1.9585,57.89570000000002,14.0,2.0,1.0,4.0,3.0,74.0,2.0,0.0,0.0,2.0,37.79,86.31146220990358,2.510480458264342,486.07280974079566
A-1385,2-chloropyridine,InChI=1S/C5H4ClN/c6-5-3-1-2-4-7-5/h1-4H,OKDGRDCXVWSXDC-UHFFFAOYSA-N,Clc1ccccn1,-0.7541456686,0.0,1,G1,113.54699999999998,1.7349999999999997,29.247,7.0,1.0,0.0,2.0,0.0,36.0,1.0,0.0,0.0,1.0,12.89,46.95431732732515,3.0214653097240864,138.00750422530467
A-1387,"2,5-dichlorophenol","InChI=1S/C6H4Cl2O/c7-4-1-2-5(8)6(9)3-4/h1-3,9H",RANCECPPZPIPNO-UHFFFAOYSA-N,Oc1cc(Cl)ccc1Cl,-1.9111656018,0.0,1,G1,163.003,2.699,38.12680000000001,9.0,1.0,1.0,3.0,0.0,48.0,1.0,0.0,0.0,1.0,20.23,62.83216932545633,3.1716780304409156,222.29788705001033
A-1388,dicopper(2+) ion disodium 2-[(E)-2-(2-oxido-5-sulfamoylphenyl)diazen-1-yl]-6-({5-oxido-6-[(E)-2-(2-oxido-5-sulfamoylphenyl)diazen-1-yl]-7-sulfonatonaphthalen-2-yl}amino)-3-sulfonatonaphthalen-1-olate,"InChI=1S/C32H25N7O14S4.2Cu.2Na/c33-54(44,45)19-3-7-25(40)23(13-19)36-38-29-27(56(48,49)50)11-15-9-17(1-5-21(15)31(29)42)35-18-2-6-22-16(10-18)12-28(57(51,52)53)30(32(22)43)39-37-24-14-20(55(34,46)47)4-8-26(24)41;;;;/h1-14,35,40-43H,(H2,33,44,45)(H2,34,46,47)(H,48,49,50)(H,51,52,53);;;;/q;2*+2;2*+1/p-6",OHHRMPATRJSFJN-UHFFFAOYSA-H,[Na+].[Na+].[Cu++].[Cu++].N[S](=O)(=O)c1ccc([O-])c(c1)N=Nc2c([O-])c3ccc(Nc4ccc5c([O-])c(N=Nc6cc(ccc6[O-])[S](N)(=O)=O)c(cc5c4)[S]([O-])(=O)=O)cc3cc2[S]([O-])(=O)=O,-2.7104892768,0.0,1,G1,1026.879,-4.0321999999999925,188.87149999999988,61.0,19.0,3.0,29.0,10.0,314.0,6.0,0.0,0.0,6.0,388.43,411.0630126713318,3.2033300209653697e-06,3023.763604454553
A-1390,"1,10-bis(2-ethylhexyl) decanedioate","InChI=1S/C26H50O4/c1-5-9-17-23(7-3)21-29-25(27)19-15-13-11-12-14-16-20-26(28)30-22-24(8-4)18-10-6-2/h23-24H,5-22H2,1-4H3",VJHINFRRDQUWOJ-UHFFFAOYSA-N,CCCCC(CC)COC(=O)CCCCCCCCC(=O)OCC(CC)CCCC,-3.3290743264,0.0,1,G1,426.68200000000024,7.626400000000009,125.46600000000011,30.0,4.0,0.0,4.0,21.0,178.0,0.0,0.0,0.0,0.0,52.60000000000001,186.41293854684608,3.555746631440125,369.8377762182996
A-1391,4-amino-5-chloro-N-[2-(diethylamino)ethyl]-2-methoxybenzamide,"InChI=1S/C14H22ClN3O2.ClH/c1-4-18(5-2)7-6-17-14(19)10-8-11(15)12(16)9-13(10)20-3;/h8-9H,4-7,16H2,1-3H3,(H,17,19);1H",RVFUNJWWXKCWNS-UHFFFAOYSA-N,[H+].[Cl-].CCN(CC)CCNC(=O)c1cc(Cl)c(N)cc1OC,-3.2256490876,0.0,1,G1,336.26300000000015,-0.8810999999999976,83.64960000000004,21.0,4.0,2.0,7.0,7.0,120.0,1.0,0.0,0.0,1.0,67.59,138.21675176397125,0.0,471.6463260670472
A-1392,arsine,InChI=1S/AsH2/h1H2,WLQSSCFYCXIQDZ-UHFFFAOYSA-N,[As],-2.5735793663999997,0.7624952200372217,3,G4,74.922,-0.3808,5.754,1.0,0.0,0.0,1.0,0.0,5.0,0.0,0.0,0.0,0.0,0.0,18.804693978445496,0.0,0.0
A-1397,Spironolactone intermediate,"InChI=1S/C22H30O3/c1-20-9-5-15(23)13-14(20)3-4-16-17(20)6-10-21(2)18(16)7-11-22(21)12-8-19(24)25-22/h13,16-18H,3-12H2,1-2H3/t16-,17+,18+,20+,21+,22-/m1/s1",UWBICEKKOYXZRG-WNHSNXHDSA-N,C[C@]12CCC(=O)C=C1CC[C@@H]3[C@@H]2CC[C@@]4(C)[C@H]3CC[C@@]45CCC(=O)O5,-4.2250037793,0.0,1,G1,342.47900000000016,4.5941000000000045,94.76700000000007,25.0,3.0,0.0,3.0,0.0,136.0,0.0,4.0,5.0,5.0,43.370000000000005,150.12086605992232,1.4903403263319668,678.7598170669822
A-1399,"2,2-bis({[(2-methylprop-2-enoyl)oxy]methyl})butyl 2-methylprop-2-enoate","InChI=1S/C18H26O6/c1-8-18(9-22-15(19)12(2)3,10-23-16(20)13(4)5)11-24-17(21)14(6)7/h2,4,6,8-11H2,1,3,5,7H3",OKKRPWIIYQTPQF-UHFFFAOYSA-N,CCC(COC(=O)C(C)=C)(COC(=O)C(C)=C)COC(=O)C(C)=C,-4.2262342969,0.09463285154999967,2,G3,338.40000000000003,2.7407000000000012,90.04300000000003,24.0,6.0,0.0,6.0,10.0,134.0,0.0,0.0,0.0,0.0,78.9,142.6996598646711,5.106512542083464,469.6340396756941
A-1400,3-methyl-4-propan-2-ylphenol,"InChI=1S/C10H14O/c1-7(2)10-5-4-9(11)6-8(10)3/h4-7,11H,1-3H3",IJALWSVNUBBQRA-UHFFFAOYSA-N,CC(C)c1ccc(O)cc1C,-2.8545113539999996,0.0,1,G1,150.22099999999995,2.824020000000001,46.93280000000003,11.0,1.0,1.0,1.0,1.0,60.0,1.0,0.0,0.0,1.0,20.23,67.6854053292794,3.092719758380193,251.0497317859833
A-1401,1-Isopropyl-2-methoxy-4-methylcyclohexane,"InChI=1S/C11H22O/c1-8(2)10-6-5-9(3)7-11(10)12-4/h8-11H,5-7H2,1-4H3",JDGJLPHFRJNJMN-UHFFFAOYSA-N,COC1CC(C)CCC1C(C)C,-3.9301744514999997,0.0,1,G1,170.296,3.093600000000002,52.140000000000036,12.0,1.0,0.0,1.0,2.0,72.0,0.0,1.0,1.0,1.0,9.23,76.49638624777327,2.501180984372024,130.9658022036436
A-1402,"disodium [2,7-dibromo-9-(2-carboxylatophenyl)-6-oxido-3-oxo-3H-xanthen-5-yl]mercurol","InChI=1S/C24H12Br2O5.Hg.2Na/c1-2-3-6-14-22(28)18(26)10-16-21(12-7-4-5-8-13(12)24(29)30)15-9-17(25)19(27)11-20(15)31-23(14)16;;;/h1-5,7-11,28H,(H,29,30);;;/q;;2*+1/p-2",QLVIXIXZJAKNOS-UHFFFAOYSA-L,[Na+].[Na+].[O-]C(=O)c1ccccc1C2=C3C=C(Br)C(=O)C=C3Oc4c2cc(Br)c([O-])c4C5=CC=C[Hg]5,-4.5936830655000005,0.0,1,G1,784.7170000000002,-1.5143999999999975,120.83550000000005,34.0,5.0,0.0,10.0,3.0,154.0,2.0,0.0,3.0,5.0,93.4,267.4789764151847,1.619999107538011e-06,1544.9653200748714
A-1404,"3,7,7-trimethylbicyclo[4.1.0]hept-3-ene","InChI=1S/C10H16/c1-7-4-5-8-9(6-7)10(8,2)3/h4,8-9H,5-6H2,1-3H3",BQOFWKZOCNGFEC-UHFFFAOYSA-N,CC1=CCC2C(C1)C2(C)C,-4.6704052705,0.3875207904272368,3,G5,136.238,2.9987000000000013,43.75200000000002,10.0,0.0,0.0,0.0,0.0,56.0,0.0,1.0,2.0,2.0,0.0,63.322464718156304,2.1301442252099365,186.21499122004107
A-1405,(4Z)-cyclopentadec-4-en-1-one,"InChI=1S/C15H26O/c16-15-13-11-9-7-5-3-1-2-4-6-8-10-12-14-15/h7,9H,1-6,8,10-14H2/b9-7-",JIYIHILAGIZIMD-CLFYSBASSA-N,O=C1CCCCCCCCCC\C=C/CC1,-4.8831871131,0.0,1,G1,222.37199999999996,4.806500000000004,69.55100000000004,16.0,1.0,0.0,1.0,0.0,92.0,0.0,0.0,1.0,1.0,17.07,100.31452854371236,2.2025318710991564,205.4804910444948
A-1406,oxozinc,InChI=1S/O.Zn,XLOMVQKBTHCTTD-UHFFFAOYSA-N,O=[Zn],-4.448167714599999,0.0,1,G1,81.389,-0.1213,0.6865,2.0,1.0,0.0,2.0,0.0,8.0,0.0,0.0,0.0,0.0,17.07,22.60496136211111,2.0,2.0
A-1407,ditolyl ether,"InChI=1S/C14H14O/c1-11-7-3-5-9-13(11)15-14-10-6-4-8-12(14)2/h3-10H,1-2H3",CYXMOAZSOPXQOD-UHFFFAOYSA-N,Cc1ccccc1Oc2ccccc2C,-4.8439277143,0.0,1,G1,198.26500000000001,4.095740000000003,62.43200000000004,15.0,1.0,0.0,1.0,2.0,76.0,2.0,0.0,0.0,2.0,9.23,90.33192678386109,2.3021843604815553,416.90080908048924
A-1409,1-(propan-2-yl)naphthalene; 2-(propan-2-yl)naphthalene,"InChI=1S/C13H14/c1-10(2)12-9-5-7-11-6-3-4-8-13(11)12/h3-10H,1-2H3",PMPBFICDXLLSRM-UHFFFAOYSA-N,CC(C)c1cccc2ccccc12,-4.7823935551,0.0,1,G1,170.25499999999997,3.9632000000000023,58.037000000000035,13.0,0.0,0.0,0.0,1.0,66.0,2.0,0.0,0.0,2.0,0.0,79.20789399442198,2.756733762067337,407.81275369561155
A-1410,2-(dimethylamino)-2-[(4-methylphenyl)methyl]-1-[4-(morpholin-4-yl)phenyl]butan-1-one,"InChI=1S/C24H32N2O2/c1-5-24(25(3)4,18-20-8-6-19(2)7-9-20)23(27)21-10-12-22(13-11-21)26-14-16-28-17-15-26/h6-13H,5,14-18H2,1-4H3",PUBNJSZGANKUGX-UHFFFAOYSA-N,CCC(Cc1ccc(C)cc1)(N(C)C)C(=O)c2ccc(cc2)N3CCOCC3,-5.1332331523,0.10051906284970785,3,G5,380.5320000000002,3.9674200000000033,115.39650000000006,28.0,4.0,0.0,4.0,7.0,150.0,2.0,1.0,1.0,3.0,32.78,168.65670621474848,1.8485560215683836,777.2573768650559