ID,Name,InChI,InChIKey,SMILES,Solubility,SD,Ocurrences,Group,MolWt,MolLogP,MolMR,HeavyAtomCount,NumHAcceptors,NumHDonors,NumHeteroatoms,NumRotatableBonds,NumValenceElectrons,NumAromaticRings,NumSaturatedRings,NumAliphaticRings,RingCount,TPSA,LabuteASA,BalabanJ,BertzCT
A-3043,"3,5,5-trimethylhexanal","InChI=1S/C9H18O/c1-8(5-6-10)7-9(2,3)4/h6,8H,5,7H2,1-4H3",WTPYRCJDOZVZON-UHFFFAOYSA-N,CC(CC=O)CC(C)(C)C,-2.6759065954,0.25942899107973916,3,G5,142.242,2.6477000000000013,43.917000000000016,10.0,1.0,0.0,1.0,3.0,60.0,0.0,0.0,0.0,0.0,17.07,63.82031004304616,3.5643933326870947,99.78611874917878
A-3047,"1,2-dichlorobenzene",InChI=1S/C6H4Cl2/c7-5-3-1-2-4-6(5)8/h1-4H,RFFLAFLAYFXFSW-UHFFFAOYSA-N,Clc1ccccc1Cl,-3.0533857998,0.07973576122026936,8,G5,147.00399999999996,2.9934000000000003,36.46200000000001,8.0,0.0,0.0,2.0,0.0,42.0,1.0,0.0,0.0,1.0,0.0,58.037935573260306,3.134861511345448,162.63833891467198
A-3049,(E)-anethole,"InChI=1S/C10H12O/c1-3-4-9-5-7-10(11-2)8-6-9/h3-8H,1-2H3/b4-3+",RUVINXPYWBROJD-ONEGZZNKSA-N,COc1ccc(\C=C\C)cc1,-3.1255398769,0.0,1,G1,148.20499999999998,2.728300000000001,47.70200000000003,11.0,1.0,0.0,1.0,2.0,58.0,1.0,0.0,0.0,1.0,9.23,67.31511377440602,2.8240417350315044,233.55461928814677
A-3053,chromium(3+) ion trichloride,InChI=1S/3ClH.Cr/h3*1H;/q;;;+3/p-3,QSWDMMVNRMROPK-UHFFFAOYSA-K,[Cl-].[Cl-].[Cl-].[Cr+3],-3.1996317806,1.92254902,2,G2,158.35500000000002,-8.990499999999999,0.0,4.0,0.0,0.0,4.0,0.0,27.0,0.0,0.0,0.0,0.0,0.0,54.70127050953867,-0.0,3.2451124978365313
A-3054,"4-(2-{2-amino-4-oxo-3H,4H,7H-pyrrolo[2,3-d]pyrimidin-5-yl}ethyl)benzoic acid","InChI=1S/C15H14N4O3/c16-15-18-12-11(13(20)19-15)10(7-17-12)6-3-8-1-4-9(5-2-8)14(21)22/h1-2,4-5,7H,3,6H2,(H,21,22)(H4,16,17,18,19,20)",AIZPFZIKHIJCQX-UHFFFAOYSA-N,NC1=Nc2[nH]cc(CCc3ccc(cc3)C(O)=O)c2C(=O)N1,-3.5742890364999997,1.4925150469485493,4,G4,298.302,1.3168,81.93610000000001,22.0,4.0,4.0,7.0,4.0,112.0,3.0,0.0,0.0,3.0,124.85999999999999,124.37061323268962,1.8204944607870934,893.286713840915
A-3055,methane dimolybdenum,InChI=1S/CH4.2Mo/h1H4;;,JAGQSESDQXCFCH-UHFFFAOYSA-N,C.[Mo].[Mo],-3.4202754414,0.4092229226500004,2,G3,207.923,0.6311,6.731,3.0,0.0,0.0,2.0,0.0,20.0,0.0,0.0,0.0,0.0,0.0,49.51542721139212,-0.0,2.7548875021634682
A-3060,sodium (2S)-1-hexadecanoyl-5-oxopyrrolidine-2-carboxylate,"InChI=1S/C21H37NO4.Na/c1-2-3-4-5-6-7-8-9-10-11-12-13-14-15-19(23)22-18(21(25)26)16-17-20(22)24;/h18H,2-17H2,1H3,(H,25,26);/q;+1/p-1/t18-;/m0./s1",YHJSWPBXHVITHU-FERBBOLQSA-M,[Na+].CCCCCCCCCCCCCCCC(=O)N1[C@@H](CCC1=O)C([O-])=O,-4.0223191177999995,0.0,1,G1,389.5120000000001,0.7392000000000005,100.19400000000007,27.0,4.0,0.0,6.0,15.0,150.0,0.0,1.0,1.0,1.0,77.50999999999999,186.48429550747514,6.759987915222543e-06,441.8975442710488
A-3061,"ethyl N,N-diphenylcarbamate","InChI=1S/C15H15NO2/c1-2-18-15(17)16(13-9-5-3-6-10-13)14-11-7-4-8-12-14/h3-12H,2H2,1H3",HKTSLDUAGCAISP-UHFFFAOYSA-N,CCOC(=O)N(c1ccccc1)c2ccccc2,-3.9692395593,0.0,1,G1,241.29000000000002,3.981200000000003,72.04500000000004,18.0,2.0,0.0,3.0,3.0,92.0,2.0,0.0,0.0,2.0,29.54,106.61822466850485,2.3846013263544226,456.91675548747065
A-3064,dialuminum hexacalcium oxygen(-2) anion trisulfate,"InChI=1S/2Al.6Ca.3H2O4S.6O/c;;;;;;;;3*1-5(2,3)4;;;;;;/h;;;;;;;;3*(H2,1,2,3,4);;;;;;/q2*+3;6*+2;;;;6*-2/p-6",FRPRHMFFTRIJHL-UHFFFAOYSA-H,[O--].[O--].[O--].[O--].[O--].[O--].[Al+3].[Al+3].[Ca++].[Ca++].[Ca++].[Ca++].[Ca++].[Ca++].[O-][S]([O-])(=O)=O.[O-][S]([O-])(=O)=O.[O-][S]([O-])(=O)=O,-3.0742274262000002,0.0,1,G1,678.6150000000002,-7.773199999999997,81.57479999999998,29.0,12.0,0.0,29.0,0.0,144.0,0.0,0.0,0.0,0.0,411.78,367.6077466611799,-3.9999999931249994e-09,364.50160246346627
A-3066,3-chloro-4-[(3-fluorophenyl)methoxy]aniline,"InChI=1S/C13H11ClFNO/c14-12-7-11(16)4-5-13(12)17-8-9-2-1-3-10(15)6-9/h1-7H,8,16H2",AYPFEYDGZDPAPE-UHFFFAOYSA-N,Nc1ccc(OCc2cccc(F)c2)c(Cl)c1,-4.6932923336000005,0.0,1,G1,251.68800000000002,3.6403000000000016,66.59640000000002,17.0,2.0,1.0,4.0,3.0,88.0,2.0,0.0,0.0,2.0,35.25,103.7756769962851,2.0709468269726354,530.577953854568
A-3067,"2-(4-bromo-3-hydroxyquinolin-2-yl)-2,3-dihydro-1H-indene-1,3-dione","InChI=1S/C18H10BrNO3/c19-14-11-7-3-4-8-12(11)20-15(18(14)23)13-16(21)9-5-1-2-6-10(9)17(13)22/h1-8,13,23H",DVBLPJWQXDCAKU-UHFFFAOYSA-N,Oc1c(Br)c2ccccc2nc1C3C(=O)c4ccccc4C3=O,-4.8670972664,0.0,1,G1,368.18600000000015,3.865700000000002,88.95180000000002,23.0,4.0,1.0,5.0,1.0,112.0,3.0,0.0,1.0,4.0,67.26,139.4636305858282,1.9605915381292065,961.7232990160747
A-3068,"2,6,10,15,19,23-hexamethyltetracosane","InChI=1S/C30H62/c1-25(2)15-11-19-29(7)23-13-21-27(5)17-9-10-18-28(6)22-14-24-30(8)20-12-16-26(3)4/h25-30H,9-24H2,1-8H3",PRAKJMSDJKAYCZ-UHFFFAOYSA-N,CC(C)CCCC(C)CCCC(C)CCCCC(C)CCCC(C)CCCC(C)C,-5.1490404299,0.3203787894442638,3,G5,422.8260000000003,11.08439999999999,140.20399999999998,30.0,0.0,0.0,0.0,21.0,182.0,0.0,0.0,0.0,0.0,0.0,193.32257234533122,3.5365620101598387,307.9474732050231
A-3072,calcium dioxido-oxotin,InChI=1S/Ca.3O.Sn/q+2;;2*-1;,HNQGTZYKXIXXST-UHFFFAOYSA-N,[Ca++].[O-][Sn]([O-])=O,-5.616551128099999,0.0,1,G1,206.786,-3.2584,12.1945,5.0,3.0,0.0,5.0,0.0,24.0,0.0,0.0,0.0,0.0,63.19,67.207505733345,0.0,29.87430298092722
A-3073,octadec-2-enylsuccinic acid,"InChI=1S/C22H40O4/c1-2-3-4-5-6-7-8-9-10-11-12-13-14-15-16-17-18-20(22(25)26)19-21(23)24/h16-17,20H,2-15,18-19H2,1H3,(H,23,24)(H,25,26)/b17-16+",OVQJAEGJPUEXQD-WUKNDPDISA-N,CCCCCCCCCCCCCCC/C=C/CC(CC(O)=O)C(O)=O,-6.9644458512,0.7704774044499998,2,G2,368.55800000000005,6.589500000000006,107.44760000000008,26.0,2.0,2.0,4.0,19.0,152.0,0.0,0.0,0.0,0.0,74.6,159.6249441024536,3.3694740839034836,376.33853716549436
A-3074,"3-[2-(hexadecyloxy)phenyl]-3-oxo-N-(4-phenyl-1,3-thiazol-2-yl)propanamide","InChI=1S/C34H46N2O3S/c1-2-3-4-5-6-7-8-9-10-11-12-13-14-20-25-39-32-24-19-18-23-29(32)31(37)26-33(38)36-34-35-30(27-40-34)28-21-16-15-17-22-28/h15-19,21-24,27H,2-14,20,25-26H2,1H3,(H,35,36,38)",SSGFKDXGKBJUNX-UHFFFAOYSA-N,CCCCCCCCCCCCCCCCOc1ccccc1C(=O)CC(=O)Nc2scc(n2)c3ccccc3,-4.8472795348,0.0,1,G1,562.8200000000002,9.881699999999999,167.37619999999956,40.0,5.0,1.0,6.0,21.0,216.0,3.0,0.0,0.0,3.0,68.29,244.32595456972103,1.2808031409035956,1128.9801985175525
A-3075,2-isopropoxyethyl acetate,"InChI=1S/C7H14O3/c1-6(2)9-4-5-10-7(3)8/h6H,4-5H2,1-3H3",HCDJVEYJSSTYSW-UHFFFAOYSA-N,CC(C)OCCOC(C)=O,-0.1657752416,0.0,1,G1,146.18599999999998,0.9744999999999999,37.721000000000004,10.0,3.0,0.0,3.0,4.0,60.0,0.0,0.0,0.0,0.0,35.53,61.31751627326672,2.980692229675904,99.02434166397533
A-3076,triammonium hexachlororhodate,InChI=1S/6ClH.3H3N.Rh/h6*1H;3*1H3;/q;;;;;;;;;+3/p-3,OJNYBYILSUWBHM-UHFFFAOYSA-K,[NH4+].[NH4+].[NH4+].[Cl-].[Cl-].[Cl-].[Cl-].[Cl-].[Cl-].[Rh+3],-0.5687670702000001,0.0,1,G1,369.74100000000004,-16.84989999999998,17.954400000000003,10.0,0.0,3.0,10.0,0.0,78.0,0.0,0.0,0.0,0.0,109.5,111.57761640960493,-0.0,12.954618442383218
A-3077,"2,2,4-trimethylhexanedioic acid; 2,4,4-trimethylhexanedioic acid","InChI=1S/C9H16O4/c1-6(4-7(10)11)5-9(2,3)8(12)13/h6H,4-5H2,1-3H3,(H,10,11)(H,12,13)",DWFUTNJGNBYHNN-UHFFFAOYSA-N,CC(CC(O)=O)CC(C)(C)C(O)=O,-0.2790374966,0.0,1,G1,188.22299999999996,1.5981,47.45060000000002,13.0,2.0,2.0,4.0,5.0,76.0,0.0,0.0,0.0,0.0,74.6,77.57029964748197,4.111090984524121,207.660241301476
A-3078,2-hydroxy-5-sulfobenzoic acid,"InChI=1S/C7H6O6S/c8-6-2-1-4(14(11,12)13)3-5(6)7(9)10/h1-3,8H,(H,9,10)(H,11,12,13)",YCPXWRQRBFJBPZ-UHFFFAOYSA-N,OC(=O)c1cc(ccc1O)[S](O)(=O)=O,0.6554902722,0.0,1,G1,218.18599999999998,0.3371,44.88070000000001,14.0,4.0,3.0,7.0,2.0,76.0,1.0,0.0,0.0,1.0,111.9,79.17497084836997,3.416533376164286,474.953429000482
A-3079,morpholin-4-ium sulfamate,"InChI=1S/C4H9NO.H3NO3S/c1-3-6-4-2-5-1;1-5(2,3)4/h5H,1-4H2;(H3,1,2,3,4)",PHUIJNUKWTUKLJ-UHFFFAOYSA-N,N[S](O)(=O)=O.C1COCCN1,0.727886015,0.0,1,G1,184.21699999999998,-1.6458999999999988,39.424700000000016,11.0,4.0,3.0,7.0,0.0,68.0,0.0,1.0,1.0,1.0,101.65,65.60138900181612,1.8666666404833335e-07,155.02130455739126
A-3080,potassium fluoride,InChI=1S/FH.K/h1H;/q;+1/p-1,NROKBHXJSPEDAR-UHFFFAOYSA-M,[F-].[K+],1.2284072863,0.0,1,G1,58.096000000000004,-5.992,0.0,2.0,0.0,0.0,2.0,0.0,8.0,0.0,0.0,0.0,0.0,0.0,55.01970541966733,0.0,2.0
A-3081,1-(2-hydroxyethyl)imidazolidin-2-one,"InChI=1S/C5H10N2O2/c8-4-3-7-2-1-6-5(7)9/h8H,1-4H2,(H,6,9)",HBAIZGPCSAAFSU-UHFFFAOYSA-N,OCCN1CCNC1=O,0.8776773261,0.0,1,G1,130.147,-0.9961,32.05749999999999,9.0,2.0,2.0,4.0,2.0,52.0,0.0,1.0,1.0,1.0,52.57,53.45864003793794,2.309791814716797,115.52562235615692
A-3082,"4-(2-hydroxyethoxy)benzene-1,3-diaminium sulfate","InChI=1S/C8H12N2O2/c9-6-1-2-8(7(10)5-6)12-4-3-11/h1-2,5,11H,3-4,9-10H2",WCPGNFONICRLCL-UHFFFAOYSA-N,Nc1ccc(OCCO)c(N)c1,-0.2337041755,0.0,1,G1,168.196,0.2220999999999999,47.84760000000001,12.0,4.0,3.0,4.0,3.0,66.0,1.0,0.0,0.0,1.0,81.5,70.7488477240185,2.722334696822482,263.23481493850056
A-3083,2-methylprop-2-enoic acid,"InChI=1S/C4H6O2/c1-3(2)4(5)6/h1H2,2H3,(H,5,6)",CERQOIWHTDAKMF-UHFFFAOYSA-N,CC(=C)C(O)=O,0.0562733679,0.02093668395,2,G3,86.08999999999999,0.6471,22.449799999999993,6.0,1.0,1.0,2.0,1.0,34.0,0.0,0.0,0.0,0.0,37.3,36.10023019107489,3.5677034550432034,71.5488750216347
A-3084,2-methylprop-2-enoyl 2-methylprop-2-enoate,"InChI=1S/C8H10O3/c1-5(2)7(9)11-8(10)6(3)4/h1,3H2,2,4H3",DCUFMVPCXCSVNP-UHFFFAOYSA-N,CC(=C)C(=O)OC(=O)C(C)=C,-0.1967597116,0.0,1,G1,154.16499999999996,1.2084,40.72700000000001,11.0,3.0,0.0,3.0,2.0,60.0,0.0,0.0,0.0,0.0,43.370000000000005,65.3512291938317,4.069307057733475,201.49166979158304
A-3086,tetraethylazanium benzoate,"InChI=1S/C8H20N.C7H6O2/c1-5-9(6-2,7-3)8-4;8-7(9)6-4-2-1-3-5-6/h5-8H2,1-4H3;1-5H,(H,8,9)/q+1;/p-1",CIFIGXMZHITUAZ-UHFFFAOYSA-M,CC[N+](CC)(CC)CC.[O-]C(=O)c1ccccc1,0.583312842,0.0,1,G1,251.37,1.9328999999999996,73.19690000000006,18.0,2.0,0.0,3.0,5.0,102.0,1.0,0.0,0.0,1.0,40.129999999999995,110.64727431163416,3.211111055441359e-07,314.0968799935334
A-3087,sodium cyanate,InChI=1S/CHNO.Na/c2-1-3;/h3H;/q;+1/p-1,ZVCDLGYNFYZZOK-UHFFFAOYSA-M,[Na+].[O-]C#N,0.1711169096,0.0,1,G1,65.007,-4.168220000000001,5.6129999999999995,4.0,2.0,0.0,3.0,0.0,16.0,0.0,0.0,0.0,0.0,46.849999999999994,46.33946408420622,0.0,29.509775004326936
A-3088,sodium hydrogen carbonate,"InChI=1S/CH2O3.Na/c2-1(3)4;/h(H2,2,3,4);/q;+1/p-1",UIIMBOGNXHQVGW-UHFFFAOYSA-M,[Na+].OC([O-])=O,0.0579609271,0.028848746954164204,3,G5,84.00599999999999,-4.1083,8.0248,5.0,2.0,1.0,4.0,0.0,24.0,0.0,0.0,0.0,0.0,60.36,50.90264025497728,0.0,29.87430298092722
A-3089,2-[(2-hydroxyethyl)amino]ethan-1-ol,"InChI=1S/C4H11NO2/c6-3-1-5-2-4-7/h5-7H,1-4H2",ZBCBWPMODOFKDW-UHFFFAOYSA-N,OCCNCCO,0.9577927941,0.010203602950000001,2,G3,105.137,-1.4393999999999998,27.041299999999993,7.0,3.0,3.0,3.0,4.0,44.0,0.0,0.0,0.0,0.0,52.489999999999995,42.97240705901943,2.447472887876344,28.870765403276856
A-3091,2-(2-{2-[2-(prop-2-enoyloxy)ethoxy]ethoxy}ethoxy)ethyl prop-2-enoate,"InChI=1S/C14H22O7/c1-3-13(15)20-11-9-18-7-5-17-6-8-19-10-12-21-14(16)4-2/h3-4H,1-2,5-12H2",HCLJOFJIQIJXHS-UHFFFAOYSA-N,C=CC(=O)OCCOCCOCCOCCOC(=O)C=C,-0.5000132962,0.0,1,G1,302.323,0.49459999999999993,74.76900000000003,21.0,7.0,0.0,7.0,14.0,120.0,0.0,0.0,0.0,0.0,80.29000000000002,123.99506279823889,3.0871241800658007,284.4443837591306
A-3093,"hydrogen 3,6-bis(diethylamino)-9-(2,4-disulphonatophenyl)xanthylium, sodium salt","InChI=1S/C29H34N2O7S2.Na/c1-7-30(8-2)24-16-26-22(13-18(24)5)29(21-12-11-20(39(32,33)34)15-28(21)40(35,36)37)23-14-19(6)25(17-27(23)38-26)31(9-3)10-4;/h11-17H,7-10H2,1-6H3,(H-,32,33,34,35,36,37);/q;+1/p-1",XJENLUNLXRJLEZ-UHFFFAOYSA-M,[Na+].CCN(CC)c1cc2[o+]c3cc(N(CC)CC)c(C)cc3c(c2cc1C)c4ccc(cc4[S]([O-])(=O)=O)[S]([O-])(=O)=O,-0.8053203897,0.0,1,G1,608.7140000000003,2.655540000000002,156.08539999999965,41.0,8.0,0.0,12.0,9.0,214.0,4.0,0.0,0.0,4.0,132.18,263.4964033402065,4.622492000581185e-06,1758.0570171622692
A-3097,sodium bromide,InChI=1S/BrH.Na/h1H;/q;+1/p-1,JHJLBTNAGRQEKS-UHFFFAOYSA-M,[Na+].[Br-],0.9635010856999999,0.0,1,G1,102.89399999999999,-5.992,0.0,2.0,0.0,0.0,2.0,0.0,8.0,0.0,0.0,0.0,0.0,0.0,46.294579495063154,0.0,2.0
A-3098,1-methoxy-2-(2-methoxyethoxy)ethane,"InChI=1S/C6H14O3/c1-7-3-5-9-6-4-8-2/h3-6H2,1-2H3",SBZXBUIDTXKZTM-UHFFFAOYSA-N,COCCOCCOC,0.8454562496,0.013421875199999989,2,G3,134.175,0.29580000000000006,34.57099999999999,9.0,3.0,0.0,3.0,6.0,56.0,0.0,0.0,0.0,0.0,27.69,55.90459728833323,2.595082706793886,41.567631415296866
A-3099,(2E)-but-2-enoic acid,"InChI=1S/C4H6O2/c1-2-3-4(5)6/h2-3H,1H3,(H,5,6)/b3-2+",LDHQCZJRKDOVOX-NSCUHMNNSA-N,C/C=C/C(O)=O,0.0381751458,0.0193375729,2,G3,86.08999999999999,0.6471,22.449799999999993,6.0,1.0,1.0,2.0,1.0,34.0,0.0,0.0,0.0,0.0,37.3,36.10023019107489,3.301627871993482,73.61727061434749
A-3100,barium dinitrate,InChI=1S/Ba.2NO3/c;2*2-1(3)4/q+2;2*-1,IWOUKMZUPDVPGQ-UHFFFAOYSA-N,[Ba++].[O-][N+]([O-])=O.[O-][N+]([O-])=O,-0.44407138590000006,0.0,1,G1,261.336,-0.8590000000000002,26.476800000000004,9.0,6.0,0.0,9.0,0.0,48.0,0.0,0.0,0.0,0.0,132.4,88.75877657363266,-7.199999951999999e-08,69.05865002596163
A-3102,"bis(5-oxo-L-prolinato-N1,O2)zinc","InChI=1S/2C5H7NO3.Zn/c2*7-4-2-1-3(6-4)5(8)9;/h2*3H,1-2H2,(H,6,7)(H,8,9);/q;;+2/p-2",OWVLYQRCCIEOPF-UHFFFAOYSA-L,[Zn++].[O-]C(=O)C1CCC(=O)N1.[O-]C(=O)C2CCC(=O)N2,-0.5341935881000001,0.0,1,G1,321.60400000000004,-3.972699999999997,52.34340000000002,19.0,6.0,2.0,9.0,2.0,100.0,0.0,2.0,2.0,2.0,138.45999999999998,121.23550721821785,3.239999946180001e-07,350.21616690607414
A-3104,calcium bis(dihydrogenorthophosphate),"InChI=1S/Ca.2H3O4P/c;2*1-5(2,3)4/h;2*(H3,1,2,3,4)/q+2;;/p-2",YYRMJZQKEFZXMX-UHFFFAOYSA-L,[Ca++].O[P](O)([O-])=O.O[P](O)([O-])=O,-0.3966430532,0.0,1,G1,234.04999999999998,-3.5020000000000002,29.842199999999995,11.0,4.0,4.0,11.0,0.0,64.0,0.0,0.0,0.0,0.0,161.18,91.36053192431261,-1.0666666581111113e-07,124.40154658752398
A-3115,potassium (dimethylamino)acetate,"InChI=1S/C4H9NO2.K/c1-5(2)3-4(6)7;/h3H2,1-2H3,(H,6,7);/q;+1/p-1",WHXRLGMKAWGISQ-UHFFFAOYSA-M,[K+].CN(C)CC([O-])=O,0.8091728638,0.0,1,G1,141.21099999999998,-4.698099999999998,23.56099999999999,8.0,3.0,0.0,4.0,2.0,42.0,0.0,0.0,0.0,0.0,43.37,91.47223158882512,0.0,74.43856189774726
A-3117,dipotassium carbonate,"InChI=1S/CH2O3.K/c2-1(3)4;/h(H2,2,3,4);/q;+1/p-1",TYJJADVDDVDEDZ-UHFFFAOYSA-M,[K+].OC([O-])=O,0.9537476957,0.05037667605000007,2,G3,100.11399999999999,-4.1083,8.0248,5.0,2.0,1.0,4.0,0.0,24.0,0.0,0.0,0.0,0.0,60.36,71.41180532762793,0.0,29.87430298092722
A-3118,3-methylbut-3-en-1-ol,"InChI=1S/C5H10O/c1-5(2)3-4-6/h6H,1,3-4H2,2H3",CPJRRXSHAYUTGL-UHFFFAOYSA-N,CC(=C)CCO,0.0190678934,0.0,1,G1,86.134,0.9448999999999999,26.51679999999999,6.0,1.0,1.0,1.0,2.0,36.0,0.0,0.0,0.0,0.0,20.23,38.303650205427736,2.8312571099313644,47.900134529890124
A-3120,"sodium 3-(2H-1,2,3-benzotriazol-2-yl)-5-(butan-2-yl)-4-hydroxybenzene-1-sulfonate","InChI=1S/C16H17N3O4S.Na/c1-3-10(2)12-8-11(24(21,22)23)9-15(16(12)20)19-17-13-6-4-5-7-14(13)18-19;/h4-10,20H,3H2,1-2H3,(H,21,22,23);/q;+1/p-1",XTXADMXOEMEPAC-UHFFFAOYSA-M,[Na+].CCC(C)c1cc(cc(n2nc3ccccc3n2)c1O)[S]([O-])(=O)=O,-1.5762449498,0.0,1,G1,369.3780000000001,-0.4523000000000003,87.19900000000004,25.0,7.0,1.0,9.0,4.0,126.0,3.0,0.0,0.0,3.0,108.13999999999999,167.26153470614338,2.2533316115569196e-06,984.3917767419961
A-3123,4-methylaniline,"InChI=1S/C7H9N/c1-6-2-4-7(8)5-3-6/h2-5H,8H2,1H3",RZXMPPFPUUCRFN-UHFFFAOYSA-N,Cc1ccc(N)cc1,-1.0477452605,0.42620530189108047,4,G5,107.156,1.5772199999999998,35.5914,8.0,1.0,1.0,1.0,0.0,42.0,1.0,0.0,0.0,1.0,26.02,49.13623593090628,3.0324555320336755,143.24662946459569
A-3125,disodium 6-amino-5-[(E)-2-[4-(2-bromoprop-2-enamido)-2-(4-methyl-3-sulfonatobenzenesulfonyl)phenyl]diazen-1-yl]naphthalene-2-sulfonate,"InChI=1S/C26H21BrN4O9S3.2Na/c1-14-3-6-18(13-23(14)43(38,39)40)41(33,34)24-12-17(29-26(32)15(2)27)5-10-22(24)30-31-25-20-8-7-19(42(35,36)37)11-16(20)4-9-21(25)28;;/h3-13H,2,28H2,1H3,(H,29,32)(H,35,36,37)(H,38,39,40);;/q;2*+1/p-2",QTUYUTJUQCCNBJ-UHFFFAOYSA-L,[Na+].[Na+].Cc1ccc(cc1[S]([O-])(=O)=O)[S](=O)(=O)c2cc(NC(=O)C(Br)=C)ccc2N=Nc3c(N)ccc4cc(ccc34)[S]([O-])(=O)=O,-1.8948362305000002,0.0,1,G1,753.5419999999999,-1.3580799999999924,158.23229999999984,45.0,12.0,2.0,19.0,8.0,224.0,4.0,0.0,0.0,4.0,228.38000000000002,311.0724915668491,3.526662621386762e-06,2212.3032301171006
A-3128,2-ethoxyphenol,"InChI=1S/C8H10O2/c1-2-10-8-6-4-3-5-7(8)9/h3-6,9H,2H2,1H3",MOEFFSWKSMRFRQ-UHFFFAOYSA-N,CCOc1ccccc1O,-1.1714515037,0.0,1,G1,138.16599999999997,1.7908999999999997,39.27580000000001,10.0,2.0,1.0,2.0,2.0,54.0,1.0,0.0,0.0,1.0,29.46,60.06906632999306,2.8111809171884006,208.16749419417292
A-3129,"(5-ethyl-1,3-dioxan-5-yl)methyl prop-2-enoate","InChI=1S/C10H16O4/c1-3-9(11)14-7-10(4-2)5-12-8-13-6-10/h3H,1,4-8H2,2H3",STGXUBIZGYMIRM-UHFFFAOYSA-N,CCC1(COCOC1)COC(=O)C=C,-1.3330548746,0.0,1,G1,200.23399999999995,1.1162999999999998,50.65100000000003,14.0,4.0,0.0,4.0,4.0,80.0,0.0,1.0,1.0,1.0,44.760000000000005,83.83045366024994,2.4312928241103484,206.16753793855545
A-3132,4-hydroxy-3-methoxybenzaldehyde,"InChI=1S/C8H8O3/c1-11-8-4-6(5-9)2-3-7(8)10/h2-5,10H,1H3",MWOOGOJBHIARFG-UHFFFAOYSA-N,COc1cc(C=O)ccc1O,-1.2280265929,0.04356329645000001,2,G3,152.14899999999997,1.2132999999999998,40.046300000000016,11.0,3.0,1.0,3.0,2.0,58.0,1.0,0.0,0.0,1.0,46.53,64.23058843003683,3.116164133858052,268.03972257956417
A-3133,dibromomethane,InChI=1S/CH2Br2/c2-1-3/h1H2,FJBFPHVGVWTDIP-UHFFFAOYSA-N,BrCBr,-1.2858947125,0.06064735624999995,2,G3,173.83499999999998,1.7337,22.720999999999997,3.0,0.0,0.0,2.0,0.0,20.0,0.0,0.0,0.0,0.0,0.0,36.47434623911227,1.6329931618554523,2.7548875021634682
A-3134,disodium selenite,"InChI=1S/2Na.H2O3Se/c;;1-4(2)3/h;;(H2,1,2,3)/q2*+1;/p-2",BVTBRVFYZUCAKH-UHFFFAOYSA-L,[Na+].[Na+].[O-][Se]([O-])=O,0.7153884158,0.0,1,G1,172.93699999999998,-8.8696,6.440499999999999,6.0,3.0,0.0,6.0,0.0,26.0,0.0,0.0,0.0,0.0,63.19,84.44067163269855,-4.4999999250000016e-08,31.774437510817343
A-3135,sodium 1-benzylpyridin-1-ium-3-carboxylate chloride,"InChI=1S/C13H11NO2.ClH.Na/c15-13(16)12-7-4-8-14(10-12)9-11-5-2-1-3-6-11;;/h1-8,10H,9H2;1H;/q;;+1/p-1",ONCDUCAWXQKSDE-UHFFFAOYSA-M,[Na+].[Cl-].[O-]C(=O)c1ccc[n+](Cc2ccccc2)c1,0.5192202667,0.0,1,G1,271.679,-5.606099999999996,56.51150000000003,18.0,2.0,0.0,5.0,3.0,88.0,2.0,0.0,0.0,2.0,44.01,134.1702497493972,1.444999677850074e-06,505.35424768288937
A-3137,2-methylbut-3-yn-2-amine,"InChI=1S/C5H9N/c1-4-5(2,3)6/h1H,6H2,2-3H3",VUGCBIWQHSRQBZ-UHFFFAOYSA-N,CC(C)(N)C#C,1.0316559884,0.0,1,G1,83.13399999999999,0.3569000000000001,27.099399999999992,6.0,1.0,1.0,1.0,0.0,34.0,0.0,0.0,0.0,0.0,26.02,38.53813557428796,3.552734354515761,70.919684538544
A-3139,sodium vanadiumoylolate,InChI=1S/Na.3O.V/q+1;;;-1;,CMZUMMUJMWNLFH-UHFFFAOYSA-N,[Na+].[O-][V](=O)=O,0.26646137420000005,0.0,1,G1,121.92899999999999,-4.425100000000001,1.373,5.0,3.0,0.0,5.0,0.0,24.0,0.0,0.0,0.0,0.0,57.199999999999996,56.028492128213195,0.0,55.2933148700206
A-3140,"disodium 2-[(5-carbamoyl-1-ethyl-2-hydroxy-4-methyl-6-oxo-1,6-dihydropyridin-3-yl)diazenyl]-4-({4-[(2-chloro-5-sulfonatophenyl)amino]-6-fluoro-1,3,5-triazin-2-yl}amino)benzenesulfonate","InChI=1S/C24H21ClFN9O9S2.2Na/c1-3-35-20(37)17(19(27)36)10(2)18(21(35)38)34-33-15-8-11(4-7-16(15)46(42,43)44)28-23-30-22(26)31-24(32-23)29-14-9-12(45(39,40)41)5-6-13(14)25;;/h4-9,33H,3H2,1-2H3,(H2,27,36)(H,39,40,41)(H,42,43,44)(H2,28,29,30,31,32);;/q;2*+1/p-2/b34-18-;;",GBJBDVLMURYXQR-RJZFESICSA-L,[Na+].[Na+].CCN1C(=O)C(=N/Nc2cc(Nc3nc(F)nc(Nc4cc(ccc4Cl)[S]([O-])(=O)=O)n3)ccc2[S]([O-])(=O)=O)\C(=C(C(N)=O)C1=O)C,-0.9210343837,0.0,1,G1,742.035,-5.0740999999999925,155.51689999999988,48.0,16.0,4.0,24.0,10.0,242.0,3.0,0.0,1.0,4.0,281.99,320.44578893790015,4.0016608411198635e-06,2103.680882366483
A-3144,1-[(2-hydroxypropyl)amino]propan-2-ol,"InChI=1S/C6H15NO2/c1-5(8)3-7-4-6(2)9/h5-9H,3-4H2,1-2H3",LVTYICIALWPMFW-UHFFFAOYSA-N,CC(O)CNCC(C)O,0.815044373,0.17508503469500514,3,G5,133.191,-0.6623999999999999,36.2313,9.0,3.0,3.0,3.0,4.0,56.0,0.0,0.0,0.0,0.0,52.489999999999995,55.70229128781264,2.914658625512464,56.07820003461549
A-3146,Methenamine,InChI=1S/C6H12N4/c1-7-2-9-4-8(1)5-10(3-7)6-9/h1-6H2,VKYKSIONXSXAKP-UHFFFAOYSA-N,C1N2CN3CN1CN(C2)C3,0.7924026819,0.0,1,G1,140.19,-1.0197999999999992,36.558,10.0,4.0,0.0,4.0,0.0,56.0,0.0,4.0,4.0,4.0,12.96,60.58580282003839,1.897366596101028,101.29748098348911