ID,Name,InChI,InChIKey,SMILES,Solubility,SD,Ocurrences,Group,MolWt,MolLogP,MolMR,HeavyAtomCount,NumHAcceptors,NumHDonors,NumHeteroatoms,NumRotatableBonds,NumValenceElectrons,NumAromaticRings,NumSaturatedRings,NumAliphaticRings,RingCount,TPSA,LabuteASA,BalabanJ,BertzCT
A-2745,bis(2-ethylhexyl) carbonate,"InChI=1S/C17H34O3/c1-5-9-11-15(7-3)13-19-17(18)20-14-16(8-4)12-10-6-2/h15-16H,5-14H2,1-4H3",PXTQQOLKZBLYDY-UHFFFAOYSA-N,CCCCC(CC)COC(=O)OCC(CC)CCCC,-6.979936668500001,0.0,1,G1,286.456,5.572400000000006,83.91200000000008,20.0,3.0,0.0,3.0,12.0,120.0,0.0,0.0,0.0,0.0,35.53,124.9669374172328,3.795028667501342,206.27500612894352
A-2747,dibenzyl {[bis(benzyloxy)phosphoryl]oxy}phosphonate,"InChI=1S/C28H28O7P2/c29-36(31-21-25-13-5-1-6-14-25,32-22-26-15-7-2-8-16-26)35-37(30,33-23-27-17-9-3-10-18-27)34-24-28-19-11-4-12-20-28/h1-20H,21-24H2",NSBNXCZCLRBQTA-UHFFFAOYSA-N,O=[P](OCc1ccccc1)(OCc2ccccc2)O[P](=O)(OCc3ccccc3)OCc4ccccc4,-7.2540426772,0.0,1,G1,538.4730000000003,8.086400000000006,141.22199999999984,37.0,7.0,0.0,9.0,14.0,192.0,4.0,0.0,0.0,4.0,80.29,216.72940169176002,1.5413262886669155,1105.7236510365728
A-2748,4-(4-{2-[4-(4-aminophenoxy)phenyl]propan-2-yl}phenoxy)aniline,"InChI=1S/C27H26N2O2/c1-27(2,19-3-11-23(12-4-19)30-25-15-7-21(28)8-16-25)20-5-13-24(14-6-20)31-26-17-9-22(29)10-18-26/h3-18H,28-29H2,1-2H3",KMKWGXGSGPYISJ-UHFFFAOYSA-N,CC(C)(c1ccc(Oc2ccc(N)cc2)cc1)c3ccc(Oc4ccc(N)cc4)cc3,-7.191727219600001,0.0,1,G1,410.51700000000017,6.761500000000004,126.86880000000002,31.0,4.0,2.0,4.0,6.0,156.0,4.0,0.0,0.0,4.0,70.5,182.60438393391806,1.4644760390533467,1038.9909760447763
A-2750,(benzoyloxy)(hydroxy)alumanyl octadecanoate,"InChI=1S/C18H36O2.C7H6O2.Al.H2O/c1-2-3-4-5-6-7-8-9-10-11-12-13-14-15-16-17-18(19)20;8-7(9)6-4-2-1-3-5-6;;/h2-17H2,1H3,(H,19,20);1-5H,(H,8,9);;1H2/q;;+3;/p-3",PMWKMVGWLYXGLN-UHFFFAOYSA-K,CCCCCCCCCCCCCCCCCC(=O)O[Al](O)OC(=O)c1ccccc1,-7.253899897899999,0.0,1,G1,448.5800000000001,6.625300000000007,125.46830000000004,31.0,5.0,1.0,6.0,19.0,174.0,1.0,0.0,0.0,1.0,72.83000000000001,193.47129822773076,1.8827583070217113,578.534899856111
A-2751,"3-(Diethylamino)-7-oxo-7H-(1)benzopyrano(3',2':3,4)pyrido(1,2-a)benzimidazole-6-carbonitrile","InChI=1S/C23H18N4O2/c1-3-26(4-2)15-10-9-14-11-16-21(29-20(14)12-15)17(13-24)23(28)27-19-8-6-5-7-18(19)25-22(16)27/h5-12H,3-4H2,1-2H3",UTTFXJZCRVZYQF-UHFFFAOYSA-N,CCN(CC)c1ccc2C=C3C(=C(C#N)C(=O)n4c5ccccc5nc34)Oc2c1,-7.2023327624,0.0,1,G1,382.42300000000006,4.464980000000003,114.52200000000002,29.0,6.0,0.0,6.0,3.0,142.0,5.0,0.0,0.0,5.0,74.54,165.7576679385694,1.9343709505272828,1517.6122044682465
A-2752,"N-{2-[(E)-2-(2,6-dicyano-4-methylphenyl)diazen-1-yl]-5-(diethylamino)phenyl}methanesulfonamide","InChI=1S/C20H22N6O2S/c1-5-26(6-2)17-7-8-18(19(11-17)25-29(4,27)28)23-24-20-15(12-21)9-14(3)10-16(20)13-22/h7-11,25H,5-6H2,1-4H3",NSLHLMXJNOITEZ-UHFFFAOYSA-N,CCN(CC)c1ccc(N=Nc2c(cc(C)cc2C#N)C#N)c(N[S](C)(=O)=O)c1,-7.2331050936,0.0,1,G1,410.5030000000001,4.371480000000004,113.25450000000004,29.0,7.0,1.0,9.0,7.0,150.0,2.0,0.0,0.0,2.0,121.70999999999998,170.71044319438687,2.581224188198245,1087.6311487026999
A-2753,"methyl (9E,12E,15E)-octadeca-9,12,15-trienoate methyl (9Z)-octadec-9-enoate methyl (9Z,12Z)-octadeca-9,12-dienoate methyl hexadecanoate methyl octadecanoate","InChI=1S/C19H38O2.C19H36O2.C19H34O2.C19H32O2.C17H34O2/c4*1-3-4-5-6-7-8-9-10-11-12-13-14-15-16-17-18-19(20)21-2;1-3-4-5-6-7-8-9-10-11-12-13-14-15-16-17(18)19-2/h3-18H2,1-2H3;10-11H,3-9,12-18H2,1-2H3;7-8,10-11H,3-6,9,12-18H2,1-2H3;4-5,7-8,10-11H,3,6,9,12-18H2,1-2H3;3-16H2,1-2H3/b;11-10-;8-7-,11-10-;5-4+,8-7+,11-10+;",SWOKSHSHKMKETQ-WIBNQTOSSA-N,CCCCCCCCCCCCCCCCCC(=O)OC.CCCCCCCCCCCCCCCC(=O)OC.CCCCCCCC\C=C/CCCCCCCC(=O)OC.CCCCC/C=C\C\C=C/CCCCCCCC(=O)OC.CC/C=C/C/C=C/C/C=C/CCCCCCCC(=O)OC,-7.800359899299999,0.0,1,G1,1452.4049999999995,29.98030000000008,448.01200000000256,103.0,10.0,0.0,10.0,72.0,606.0,0.0,0.0,0.0,0.0,131.50000000000003,640.5749686210819,-3.886991808887497e-07,1846.1053303207648
A-2754,2-[[4-[(2-cyano-3-nitrophenyl)azo]-m-tolyl](2-acetoxyethyl)amino]ethyl acetate,"InChI=1S/C21H21N5O6/c1-15(27)31-11-9-25(10-12-32-16(2)28)19-5-3-18(4-6-19)23-24-21-8-7-20(26(29)30)13-17(21)14-22/h3-8,13H,9-12H2,1-2H3",GRMDKKJYMUDEJO-UHFFFAOYSA-N,CC(=O)OCCN(CCOC(C)=O)c1ccc(cc1)N=Nc2ccc(cc2C#N)[N+]([O-])=O,-7.300465045499999,0.0,1,G1,439.42800000000017,3.8144800000000023,113.90840000000006,32.0,10.0,0.0,11.0,10.0,166.0,2.0,0.0,0.0,2.0,147.48999999999998,183.57527793289276,2.125292797781904,1025.6360245672395
A-2755,"1-bromo-1,1,2,2,3,3,4,4,5,5,6,6,7,7,8,8,8-heptadecafluorooctane","InChI=1S/C8BrF17/c9-7(22,23)5(18,19)3(14,15)1(10,11)2(12,13)4(16,17)6(20,21)8(24,25)26",WTWWXOGTJWMJHI-UHFFFAOYSA-N,FC(F)(F)C(F)(F)C(F)(F)C(F)(F)C(F)(F)C(F)(F)C(F)(F)C(F)(F)Br,-7.3970339946,0.0,1,G1,498.95799999999997,6.348200000000002,49.611,26.0,0.0,0.0,18.0,6.0,158.0,0.0,0.0,0.0,0.0,0.0,137.97549528399315,6.612913906399524,473.86141443098984
A-2756,3-[ethyl[4-[(4-nitrophenyl)azo]phenyl]amino]propiononitrile,"InChI=1S/C17H17N5O2/c1-2-21(13-3-12-18)16-8-4-14(5-9-16)19-20-15-6-10-17(11-7-15)22(23)24/h4-11H,2-3,13H2,1H3",ZSPPPAFDNHYXNW-UHFFFAOYSA-N,CCN(CCC#N)c1ccc(cc1)N=Nc2ccc(cc2)[N+]([O-])=O,-7.208650928200001,0.0,1,G1,323.35600000000005,4.750180000000004,91.83140000000006,24.0,6.0,0.0,7.0,7.0,122.0,2.0,0.0,0.0,2.0,94.88999999999999,139.56537481620504,2.048173162326947,748.0455238581048
A-2757,Pigment red 149,"InChI=1S/C40H26N2O4/c1-19-13-20(2)16-23(15-19)41-37(43)29-9-5-25-27-7-11-31-36-32(40(46)42(39(31)45)24-17-21(3)14-22(4)18-24)12-8-28(34(27)36)26-6-10-30(38(41)44)35(29)33(25)26/h5-18H,1-4H3",FDXVHZCFTCIKDD-UHFFFAOYSA-N,Cc1cc(C)cc(c1)N2C(=O)c3ccc4c5ccc6C(=O)N(c7cc(C)cc(C)c7)C(=O)c8ccc(c9ccc(C2=O)c3c49)c5c68,-7.4761487948,0.5774509800000001,2,G2,598.6580000000001,7.175080000000006,187.7179999999997,46.0,6.0,0.0,6.0,2.0,220.0,9.0,0.0,0.0,9.0,78.14,260.55872427515254,1.4313470921066411,2650.6550299321048
A-2759,ammonium iron(3+) hexakis(cyano-C)ferrate(4-),InChI=1S/6CN.2Fe.H3N/c6*1-2;;;/h;;;;;;;;1H3/q6*-1;+2;+3;/p+1,ILZWGESBVHGTRX-UHFFFAOYSA-O,[NH4+].[Fe++].[Fe+3].[C-]#N.[C-]#N.[C-]#N.[C-]#N.[C-]#N.[C-]#N,-7.155088449400001,0.0,1,G1,285.837,0.9494199999999997,35.79279999999999,15.0,6.0,1.0,9.0,0.0,79.0,0.0,0.0,0.0,0.0,179.23999999999998,111.27558636465913,-3.956043955029585e-09,96.50074950135922
A-2760,"Methyl 3-[n-ethyl-4-[(5-nitro-2,1-benzothiazol-3-yl)azo]anilino]propanoate","InChI=1S/C19H19N5O4S/c1-3-23(11-10-18(25)28-2)14-6-4-13(5-7-14)20-21-19-16-12-15(24(26)27)8-9-17(16)22-29-19/h4-9,12H,3,10-11H2,1-2H3",VHLFTCNAACYPDY-UHFFFAOYSA-N,CCN(CCC(=O)OC)c1ccc(cc1)N=Nc2snc3ccc(cc23)[N+]([O-])=O,-7.315402454199999,0.0,1,G1,413.4590000000001,5.009300000000004,111.41240000000003,29.0,9.0,0.0,10.0,8.0,150.0,3.0,0.0,0.0,3.0,110.29000000000002,170.49557035072218,1.7440688696052005,1048.4390448058055
A-2761,tetradecyl tetradecanoate,"InChI=1S/C28H56O2/c1-3-5-7-9-11-13-15-17-19-21-23-25-27-30-28(29)26-24-22-20-18-16-14-12-10-8-6-4-2/h3-27H2,1-2H3",DZKXJUASMGQEMA-UHFFFAOYSA-N,CCCCCCCCCCCCCCOC(=O)CCCCCCCCCCCCC,-7.3271074817,0.0,1,G1,424.7540000000004,9.931799999999997,133.11500000000007,30.0,2.0,0.0,2.0,25.0,180.0,0.0,0.0,0.0,0.0,26.3,189.8677554460887,3.1342843571742227,326.6007800506426
A-2762,"trans-4-ethyl-4'-(4-propylcyclohexyl)-1,1'-biphenyl","InChI=1S/C23H30/c1-3-5-19-8-12-21(13-9-19)23-16-14-22(15-17-23)20-10-6-18(4-2)7-11-20/h6-7,10-11,14-17,19,21H,3-5,8-9,12-13H2,1-2H3",DOALOUQODWWGEZ-UHFFFAOYSA-N,CCCC1CCC(CC1)c2ccc(cc2)c3ccc(CC)cc3,-7.1853905644000005,0.0,1,G1,306.4930000000001,6.9899000000000076,100.86300000000006,23.0,0.0,0.0,0.0,5.0,122.0,2.0,1.0,1.0,3.0,0.0,141.49702943039446,1.6484675234805999,582.9403664520747
A-2763,trixylyl phosphate,"InChI=1S/C24H27O4P/c1-16-7-17(2)11-22(10-16)26-29(25,27-23-12-18(3)8-19(4)13-23)28-24-14-20(5)9-21(6)15-24/h7-15H,1-6H3",LLPMAOBOEQFPRE-UHFFFAOYSA-N,Cc1cc(C)cc(O[P](=O)(Oc2cc(C)cc(C)c2)Oc3cc(C)cc(C)c3)c1,-7.312230264299999,0.0,1,G1,410.45000000000016,7.182020000000006,117.23850000000004,29.0,4.0,0.0,5.0,6.0,152.0,3.0,0.0,0.0,3.0,44.760000000000005,172.6254905810004,1.9956292279713272,890.7809091700237
A-2764,"beta,beta-carotene","InChI=1S/C40H56/c1-31(19-13-21-33(3)25-27-37-35(5)23-15-29-39(37,7)8)17-11-12-18-32(2)20-14-22-34(4)26-28-38-36(6)24-16-30-40(38,9)10/h11-14,17-22,25-28H,15-16,23-24,29-30H2,1-10H3/b12-11+,19-13+,20-14+,27-25+,28-26+,31-17+,32-18+,33-21+,34-22+",OENHQHLEOONYIE-JLTXGRSLSA-N,CC1=C(\C=C\C(C)=C\C=C\C(C)=C\C=C\C=C(C)\C=C\C=C(C)\C=C\C2=C(C)CCCC2(C)C)C(C)(C)CCC1,-7.5537924380999995,0.0,1,G1,536.8880000000004,12.605799999999977,181.3919999999994,40.0,0.0,0.0,0.0,10.0,216.0,0.0,0.0,2.0,2.0,0.0,247.374697828212,1.885637979049954,1116.3830913843028
A-2765,hafnium,InChI=1S/Hf,VBJZVLUMGGDVMO-UHFFFAOYSA-N,[Hf],-7.1724326435000005,0.0,1,G1,178.49,-0.0025,0.0,1.0,0.0,0.0,1.0,0.0,4.0,0.0,0.0,0.0,0.0,0.0,26.276582547519773,0.0,0.0
A-2766,hafnium dioxide,InChI=1S/Hf.2O/q+4;2*-2,WIHZLLGSGQNAGK-UHFFFAOYSA-N,[O--].[O--].[Hf+4],-7.2440460955,0.0,1,G1,210.488,-0.2401,1.373,3.0,0.0,0.0,3.0,0.0,16.0,0.0,0.0,0.0,0.0,57.0,37.23808940434852,-0.0,2.7548875021634682
A-2767,(13Z)-N-octadecyldocos-13-enamide,"InChI=1S/C40H79NO/c1-3-5-7-9-11-13-15-17-19-21-22-23-24-26-28-30-32-34-36-38-40(42)41-39-37-35-33-31-29-27-25-20-18-16-14-12-10-8-6-4-2/h17,19H,3-16,18,20-39H2,1-2H3,(H,41,42)/b19-17-",FUSNPOOETKRESL-ZPHPHTNESA-N,CCCCCCCCCCCCCCCCCCNC(=O)CCCCCCCCCCC\C=C/CCCCCCCC,-7.770909422999999,0.34948500214999934,2,G3,590.0780000000001,13.961999999999973,190.47569999999936,42.0,1.0,1.0,2.0,36.0,250.0,0.0,0.0,0.0,0.0,29.1,265.9937747407649,3.1751509452106474,527.7315600189113
A-2768,"(2R)-5-amino-2-(dibenzylamino)-1,6-diphenylhex-4-en-3-one","InChI=1S/C32H32N2O/c33-30(21-26-13-5-1-6-14-26)23-32(35)31(22-27-15-7-2-8-16-27)34(24-28-17-9-3-10-18-28)25-29-19-11-4-12-20-29/h1-20,23,31H,21-22,24-25,33H2/t31-/m1/s1",IVYLNCUETJNNJU-WJOKGBTCSA-N,NC(Cc1ccccc1)=CC(=O)[C@@H](Cc2ccccc2)N(Cc3ccccc3)Cc4ccccc4,-7.6633437338,0.0,1,G1,460.62100000000015,5.954500000000007,143.4883999999998,35.0,3.0,1.0,3.0,11.0,176.0,4.0,0.0,0.0,4.0,46.330000000000005,208.09386608793747,1.6457267398328672,1164.1773537758072
A-2769,(Z)-N-octadec-9-enylhexadecan-1-amide,"InChI=1S/C34H67NO/c1-3-5-7-9-11-13-15-17-18-19-21-23-25-27-29-31-33-35-34(36)32-30-28-26-24-22-20-16-14-12-10-8-6-4-2/h17-18H,3-16,19-33H2,1-2H3,(H,35,36)/b18-17-",VMRGZRVLZQSNHC-ZCXUNETKSA-N,CCCCCCCCCCCCCCCC(=O)NCCCCCCCC\C=C/CCCCCCCC,-7.7040784145000005,0.0,1,G1,505.9160000000006,11.621399999999985,162.77369999999968,36.0,1.0,1.0,2.0,30.0,214.0,0.0,0.0,0.0,0.0,29.1,227.80412205438526,3.1848491660200615,444.4628278280947
A-2771,"1H-Pyrazole-3-carboxylic acid, 4,5-dihydro-5-oxo-1-(4-sulfophenyl)-4-[(4-sulfophenyl)azo]-, reaction products with guanidine hydrochloride N,N'-bis(mixed Ph, tolyl and xylyl) derivs.","InChI=1S/C16H12N4O9S2.CH5N3.ClH/c21-15-13(18-17-9-1-5-11(6-2-9)30(24,25)26)14(16(22)23)19-20(15)10-3-7-12(8-4-10)31(27,28)29;2-1(3)4;/h1-8,13H,(H,22,23)(H,24,25,26)(H,27,28,29);(H5,2,3,4);1H",BHAUFROZPICYNL-UHFFFAOYSA-N,[H+].[Cl-].NC(N)=N.OC(=O)C1=NN(c2ccc(cc2)[S](O)(=O)=O)C(=O)C1N=Nc3ccc(cc3)[S](O)(=O)=O,-7.751246761699999,0.0,1,G1,563.9580000000003,-2.925229999999993,120.58750000000002,36.0,10.0,6.0,19.0,6.0,194.0,2.0,0.0,1.0,3.0,279.32,210.7628519060316,2.0127267774193434e-06,1428.4687060842962
A-2772,"3-(3,5-di-tert-butyl-4-hydroxyphenyl)-N-octadecylpropanamide","InChI=1S/C35H63NO2/c1-8-9-10-11-12-13-14-15-16-17-18-19-20-21-22-23-26-36-32(37)25-24-29-27-30(34(2,3)4)33(38)31(28-29)35(5,6)7/h27-28,38H,8-26H2,1-7H3,(H,36,37)",HQSOHEURLMFXBX-UHFFFAOYSA-N,CCCCCCCCCCCCCCCCCCNC(=O)CCc1cc(c(O)c(c1)C(C)(C)C)C(C)(C)C,-7.724189002,0.0,1,G1,529.8940000000002,10.297499999999994,166.38349999999966,38.0,2.0,2.0,3.0,20.0,220.0,1.0,0.0,0.0,1.0,49.33,236.52034247284655,2.131331311862653,734.1149338463188
A-2773,"3-(3,5-di-tert-butyl-4-hydroxyphenyl)-N-{6-[3-(3,5-di-tert-butyl-4-hydroxyphenyl)propanamido]hexyl}propanamide","InChI=1S/C40H64N2O4/c1-37(2,3)29-23-27(24-30(35(29)45)38(4,5)6)17-19-33(43)41-21-15-13-14-16-22-42-34(44)20-18-28-25-31(39(7,8)9)36(46)32(26-28)40(10,11)12/h23-26,45-46H,13-22H2,1-12H3,(H,41,43)(H,42,44)",OKOBUGCCXMIKDM-UHFFFAOYSA-N,CC(C)(C)c1cc(CCC(=O)NCCCCCCNC(=O)CCc2cc(c(O)c(c2)C(C)(C)C)C(C)(C)C)cc(c1O)C(C)(C)C,-7.8041135239,1.0,2,G2,636.9620000000002,8.646000000000008,192.14299999999935,46.0,4.0,4.0,6.0,13.0,258.0,2.0,0.0,0.0,2.0,98.66000000000001,279.71811260036174,1.7125071431619932,1157.4600200586851
A-2775,4-chloro-2-(2-chlorobenzoyl)aniline,"InChI=1S/C13H9Cl2NO/c14-8-5-6-12(16)10(7-8)13(17)9-3-1-2-4-11(9)15/h1-7H,16H2",KWZYIAJRFJVQDO-UHFFFAOYSA-N,Nc1ccc(Cl)cc1C(=O)c2ccccc2Cl,-7.4250889383,0.0,1,G1,266.127,3.8066000000000013,70.74890000000002,17.0,2.0,1.0,4.0,2.0,86.0,2.0,0.0,0.0,2.0,43.09,108.96138469077744,2.5131320514212643,581.3821875173596
A-2776,4-{4-[(diphenoxyphosphoryl)oxy]phenyl}phenyl diphenyl phosphate,"InChI=1S/C36H28O8P2/c37-45(39-31-13-5-1-6-14-31,40-32-15-7-2-8-16-32)43-35-25-21-29(22-26-35)30-23-27-36(28-24-30)44-46(38,41-33-17-9-3-10-18-33)42-34-19-11-4-12-20-34/h1-28H",GXLTXCWSKKOKIR-UHFFFAOYSA-N,O=[P](Oc1ccccc1)(Oc2ccccc2)Oc3ccc(cc3)c4ccc(O[P](=O)(Oc5ccccc5)Oc6ccccc6)cc4,-7.813287357,0.0,1,G1,650.5600000000003,10.643399999999989,176.62699999999958,46.0,8.0,0.0,10.0,13.0,230.0,6.0,0.0,0.0,6.0,89.52000000000001,266.49736687580855,1.1688186278968653,1686.8200532755247
A-2777,Pigment red 178,InChI=1S/C48H26N6O4/c55-45-37-23-19-33-35-21-25-39-44-40(48(58)54(47(39)57)32-17-13-30(14-18-32)52-50-28-9-5-2-6-10-28)26-22-36(42(35)44)34-20-24-38(43(37)41(33)34)46(56)53(45)31-15-11-29(12-16-31)51-49-27-7-3-1-4-8-27/h1-26H,PXUJYZVHENREBB-UHFFFAOYSA-N,O=C1N(c2ccc(cc2)N=Nc3ccccc3)C(=O)c4ccc5c6ccc7C(=O)N(c8ccc(cc8)N=Nc9ccccc9)C(=O)c%10ccc(c%11ccc1c4c5%11)c6c7%10,-7.8755092242,0.0,1,G1,750.774,10.772199999999986,230.00599999999963,58.0,10.0,0.0,10.0,6.0,272.0,11.0,0.0,0.0,11.0,127.57999999999998,326.1066999186723,1.0512995802770202,3340.5051040518442
A-2778,"N-(10-benzamido-6,13-diacetamido-2,9-diethoxy-5,12-dioxa-7,14-diazapentacen-3-yl)benzamide","InChI=1S/C40H34N6O8/c1-5-51-29-17-27-31(19-25(29)45-39(49)23-13-9-7-10-14-23)53-37-34(42-22(4)48)36-38(33(35(37)43-27)41-21(3)47)54-32-20-26(30(52-6-2)18-28(32)44-36)46-40(50)24-15-11-8-12-16-24/h7-20H,5-6H2,1-4H3,(H,41,47)(H,42,48)(H,45,49)(H,46,50)",RVIBUAHWQKVQEF-UHFFFAOYSA-N,CCOc1cc2N=C3C(=C4Oc5cc(NC(=O)c6ccccc6)c(OCC)cc5N=C4C(=C3Oc2cc1NC(=O)c7ccccc7)NC(C)=O)NC(C)=O,-7.8613826500999995,0.0,1,G1,726.7460000000002,7.019400000000005,200.84179999999964,54.0,10.0,4.0,14.0,10.0,272.0,5.0,0.0,2.0,7.0,178.04,308.38790180501576,1.3910093744838976,2298.4315121317377
A-2779,N-octadecyloctadecanamide,"InChI=1S/C36H73NO/c1-3-5-7-9-11-13-15-17-19-21-23-25-27-29-31-33-35-37-36(38)34-32-30-28-26-24-22-20-18-16-14-12-10-8-6-4-2/h3-35H2,1-2H3,(H,37,38)",DJWFNQUDPJTSAD-UHFFFAOYSA-N,CCCCCCCCCCCCCCCCCCNC(=O)CCCCCCCCCCCCCCCCC,-7.729153446000001,0.35207525840000065,2,G3,535.9860000000004,12.62559999999998,172.1016999999996,38.0,1.0,1.0,2.0,33.0,228.0,0.0,0.0,0.0,0.0,29.1,241.22360931536275,3.1372046616517353,435.0581930499222
A-2781,aluminium(3+) ion borate,InChI=1S/Al.BO3/c;2-1(3)4/q+3;-3,OJMOMXZKOWKUTA-UHFFFAOYSA-N,[Al+3].[O-]B([O-])[O-],-6.9334417301,0.0,1,G1,85.791,-4.3286,11.508,5.0,3.0,0.0,5.0,0.0,24.0,0.0,0.0,0.0,0.0,69.17999999999999,40.55803027288261,0.0,11.609640474436814
A-2783,nitriloborane,InChI=1S/BN/c1-2,PZNSFCLAULLKQX-UHFFFAOYSA-N,B#N,-6.394784279,0.0,1,G1,24.819,-0.36572000000000005,7.478999999999999,2.0,1.0,0.0,2.0,0.0,8.0,0.0,0.0,0.0,0.0,23.79,13.910622059767006,3.0,6.754887502163469
A-2785,"4-({3,5-bis[(2,6-di-tert-butyl-4-hydroxyphenyl)methyl]-2,4,6-trimethylphenyl}methyl)-3,5-di-tert-butylphenol","InChI=1S/C54H78O3/c1-31-37(22-34-25-40(49(4,5)6)46(55)41(26-34)50(7,8)9)32(2)39(24-36-29-44(53(16,17)18)48(57)45(30-36)54(19,20)21)33(3)38(31)23-35-27-42(51(10,11)12)47(56)43(28-35)52(13,14)15/h25-30,55-57H,22-24H2,1-21H3",VSAWBBYYMBQKIK-UHFFFAOYSA-N,Cc1c(Cc2cc(c(O)c(c2)C(C)(C)C)C(C)(C)C)c(C)c(Cc3cc(c(O)c(c3)C(C)(C)C)C(C)(C)C)c(C)c1Cc4cc(c(O)c(c4)C(C)(C)C)C(C)(C)C,-7.9814736459,1.0460257392,2,G2,775.2149999999998,14.286059999999969,245.59139999999906,57.0,3.0,3.0,3.0,6.0,312.0,4.0,0.0,0.0,4.0,60.69,347.9336504261753,2.100861724759519,1777.6600227116412
A-2788,4-(2-phenylpropan-2-yl)-N-[4-(2-phenylpropan-2-yl)phenyl]aniline,"InChI=1S/C30H31N/c1-29(2,23-11-7-5-8-12-23)25-15-19-27(20-16-25)31-28-21-17-26(18-22-28)30(3,4)24-13-9-6-10-14-24/h5-22,31H,1-4H3",UJAWGGOCYUPCPS-UHFFFAOYSA-N,CC(C)(c1ccccc1)c2ccc(Nc3ccc(cc3)C(C)(C)c4ccccc4)cc2,-7.782007082100001,0.0,1,G1,405.5850000000001,8.082000000000008,133.30669999999995,31.0,1.0,1.0,1.0,6.0,156.0,4.0,0.0,0.0,4.0,12.03,186.34220060767672,1.48867566235866,1013.6661342717774
A-2789,"2-[7-(diethylamino)-2-oxo-2H-chromen-3-yl]-1,3-benzoxazole-5-sulfonamide","InChI=1S/C20H19N3O5S/c1-3-23(4-2)13-6-5-12-9-15(20(24)28-18(12)10-13)19-22-16-11-14(29(21,25)26)7-8-17(16)27-19/h5-11H,3-4H2,1-2H3,(H2,21,25,26)",SDUIURJVOCHJCO-UHFFFAOYSA-N,CCN(CC)c1ccc2C=C(C(=O)Oc2c1)c3oc4ccc(cc4n3)[S](N)(=O)=O,-7.8310984133,0.0,1,G1,413.4550000000001,3.0948,110.42120000000004,29.0,7.0,1.0,9.0,5.0,150.0,4.0,0.0,0.0,4.0,119.63999999999999,166.15241127532522,1.8205002316850547,1384.5289046877429
A-2790,Indanthrene,"InChI=1S/C28H14N2O4/c31-25-13-5-1-3-7-15(13)27(33)21-17(25)9-11-19-23(21)29-20-12-10-18-22(24(20)30-19)28(34)16-8-4-2-6-14(16)26(18)32/h1-12,29-30H",UHOKSCJSTAHBSO-UHFFFAOYSA-N,O=C1c2ccccc2C(=O)c3c4Nc5ccc6C(=O)c7ccccc7C(=O)c6c5Nc4ccc13,-7.946874563300001,0.0,1,G1,442.4300000000002,4.140600000000002,136.44539999999995,34.0,4.0,2.0,6.0,0.0,160.0,7.0,0.0,0.0,7.0,99.85999999999999,188.60677467197624,1.7231672910963136,2099.9711956119463
A-2792,3-{3-[(2-ethylhexyl)oxy]propyl}-1-{5-[({3-[(2-ethylhexyl)oxy]propyl}carbamoyl)amino]naphthalen-1-yl}urea,"InChI=1S/C34H56N4O4/c1-5-9-15-27(7-3)25-41-23-13-21-35-33(39)37-31-19-11-18-30-29(31)17-12-20-32(30)38-34(40)36-22-14-24-42-26-28(8-4)16-10-6-2/h11-12,17-20,27-28H,5-10,13-16,21-26H2,1-4H3,(H2,35,37,39)(H2,36,38,40)",NZJJSYLOGZGJHU-UHFFFAOYSA-N,CCCCC(CC)COCCCNC(=O)Nc1cccc2c(NC(=O)NCCCOCC(CC)CCCC)cccc12,-8.0680715196,0.0,1,G1,584.8460000000003,8.329000000000008,175.47479999999956,42.0,4.0,4.0,8.0,22.0,236.0,2.0,0.0,0.0,2.0,100.72000000000001,253.62126179028425,1.7396819151345566,950.5190336764166
A-2794,"2-[9-(1-{[3-(3-tert-butyl-4-hydroxy-5-methylphenyl)propanoyl]oxy}-2-methylpropan-2-yl)-2,4,8,10-tetraoxaspiro[5.5]undecan-3-yl]-2-methylpropyl 3-(3-tert-butyl-4-hydroxy-5-methylphenyl)propanoate","InChI=1S/C43H64O10/c1-27-17-29(19-31(35(27)46)39(3,4)5)13-15-33(44)48-21-41(9,10)37-50-23-43(24-51-37)25-52-38(53-26-43)42(11,12)22-49-34(45)16-14-30-18-28(2)36(47)32(20-30)40(6,7)8/h17-20,37-38,46-47H,13-16,21-26H2,1-12H3",CGRTZESQZZGAAU-UHFFFAOYSA-N,Cc1cc(CCC(=O)OCC(C)(C)[CH]2OC[C]3(CO2)CO[CH](OC3)C(C)(C)COC(=O)CCc4cc(C)c(O)c(c4)C(C)(C)C)cc(c1O)C(C)(C)C,-8.2677435641,0.0,1,G1,740.9750000000001,7.746040000000011,203.02659999999923,53.0,10.0,2.0,10.0,12.0,296.0,2.0,2.0,2.0,4.0,129.98000000000002,316.38282364631823,1.1868874837608487,1471.0495544757086
A-2795,"titanium(4+) ion bis(2,6-difluoro-3-(1H-pyrrol-1-yl)benzen-1-ide) bis(cyclopenta-2,4-dien-1-ide)","InChI=1S/2C10H6F2N.2C5H5.Ti/c2*11-8-3-4-10(9(12)7-8)13-5-1-2-6-13;2*1-2-4-5-3-1;/h2*1,3-7H;2*1-5H;/q4*-1;+4",UWVBGISRTRNOCI-UHFFFAOYSA-N,[Ti+4].Fc1ccc(N2C=C[C-]=C2)c(F)c1.Fc3ccc(N4C=C[C-]=C4)c(F)c3.[cH-]5cccc5.[cH-]6cccc6,-8.1257893916,0.0,1,G1,534.3790000000001,7.919880000000006,133.1119999999999,37.0,2.0,0.0,7.0,2.0,184.0,6.0,0.0,0.0,6.0,9.86,228.21993153198648,1.8736110942771998e-07,1217.3548945067237
A-2796,"3-(1,3-benzothiazol-2-yl)-7-(diethylamino)-2-oxo-2H-chromene-4-carbonitrile","InChI=1S/C21H17N3O2S/c1-3-24(4-2)13-9-10-14-15(12-22)19(21(25)26-17(14)11-13)20-23-16-7-5-6-8-18(16)27-20/h5-11H,3-4H2,1-2H3",NDKYYKABKLOOAP-UHFFFAOYSA-N,CCN(CC)c1ccc2c(OC(=O)C(=C2C#N)c3sc4ccccc4n3)c1,-8.0974343241,0.0,1,G1,375.45300000000003,4.787580000000004,109.37400000000001,27.0,6.0,0.0,6.0,4.0,134.0,4.0,0.0,0.0,4.0,70.13,159.6553004880973,1.9660880219539818,1212.9804095349436