ID,Name,InChI,InChIKey,SMILES,Solubility,SD,Ocurrences,Group,MolWt,MolLogP,MolMR,HeavyAtomCount,NumHAcceptors,NumHDonors,NumHeteroatoms,NumRotatableBonds,NumValenceElectrons,NumAromaticRings,NumSaturatedRings,NumAliphaticRings,RingCount,TPSA,LabuteASA,BalabanJ,BertzCT
A-3578,zinc bis(2-hydroxypropanoate),"InChI=1S/2C3H6O3.Zn/c2*1-2(4)3(5)6;/h2*2,4H,1H3,(H,5,6);/q;;+2/p-2",CANRESZKMUPMAE-UHFFFAOYSA-L,[Zn++].CC(O)C([O-])=O.CC(O)C([O-])=O,-0.7035054304999999,0.23014728475000001,2,G3,243.52999999999997,-3.7682999999999978,33.375599999999984,13.0,6.0,2.0,7.0,2.0,72.0,0.0,0.0,0.0,0.0,120.72,87.95310000477826,-1.4285714124489798e-07,137.2034663791036
A-3582,3-methylbutanoic acid,"InChI=1S/C5H10O2/c1-4(2)3-5(6)7/h4H,3H2,1-2H3,(H,6,7)",GWYFCOCPABKNJV-UHFFFAOYSA-N,CC(C)CC(O)=O,-0.3279248515,0.035837574250000004,2,G3,102.13299999999998,1.1171,27.090799999999987,7.0,1.0,1.0,2.0,2.0,42.0,0.0,0.0,0.0,0.0,37.3,43.15477533765576,3.126006652390634,66.48040587771368
A-3594,"trilithium 2-hydroxypropane-1,2,3-tricarboxylate tetrahydrate","InChI=1S/C6H8O7.3Li.4H2O/c7-3(8)1-6(13,5(11)12)2-4(9)10;;;;;;;/h13H,1-2H2,(H,7,8)(H,9,10)(H,11,12);;;;4*1H2/q;3*+1;;;;/p-3",HXGWMCJZLNWEBC-UHFFFAOYSA-K,[Li+].[Li+].[Li+].O.O.O.O.OC(CC([O-])=O)(CC([O-])=O)C([O-])=O,0.2218764714,0.0,1,G1,281.98199999999997,-17.539400000000008,43.66000000000002,20.0,7.0,1.0,14.0,5.0,106.0,0.0,0.0,0.0,0.0,266.62,149.04117320018275,-3.4285712703061296e-08,242.54301692958342
A-3596,(2S)-3-methyl-2-[pentanoyl-[[4-[2-(2H-tetrazol-5-yl)phenyl]phenyl]methyl]amino]butanoic acid,"InChI=1S/C24H29N5O3/c1-4-5-10-21(30)29(22(16(2)3)24(31)32)15-17-11-13-18(14-12-17)19-8-6-7-9-20(19)23-25-27-28-26-23/h6-9,11-14,16,22H,4-5,10,15H2,1-3H3,(H,31,32)(H,25,26,27,28)/t22-/m0/s1",ACWBQPMHZXGDFX-QFIPXVFZSA-N,CCCCC(=O)N(Cc1ccc(cc1)c2ccccc2c3n[nH]nn3)[C@@H](C(C)C)C(O)=O,-2.7359260939,0.0,1,G1,435.5280000000002,4.161700000000002,121.38650000000007,32.0,5.0,2.0,8.0,10.0,168.0,3.0,0.0,0.0,3.0,112.07000000000002,187.21053148154266,1.8705600872018624,1032.0529522380773
A-3599,2-[(2-hydroxyethyl)(phenyl)amino]ethan-1-ol,"InChI=1S/C10H15NO2/c12-8-6-11(7-9-13)10-4-2-1-3-5-10/h1-5,12-13H,6-9H2",OJPDDQSCZGTACX-UHFFFAOYSA-N,OCCN(CCO)c1ccccc1,-0.5833809314,0.07607374176992199,3,G5,181.235,0.47759999999999986,52.82660000000004,13.0,3.0,2.0,3.0,5.0,72.0,1.0,0.0,0.0,1.0,43.7,78.23947275167879,2.6389166230335177,219.62617188863905
A-3601,ethyl methyl carbonate,"InChI=1S/C4H8O3/c1-3-7-4(5)6-2/h3H2,1-2H3",JBTWLSYIZRCDFO-UHFFFAOYSA-N,CCOC(=O)OC,-0.3444506814,0.0,1,G1,104.10499999999999,0.7893000000000001,24.030999999999988,7.0,3.0,0.0,3.0,1.0,42.0,0.0,0.0,0.0,0.0,35.53,42.222689930076896,3.002590528674132,59.955246978201394
A-3602,magnesium(2+) ion dichloride,InChI=1S/2ClH.Mg/h2*1H;/q;;+2/p-2,TWRXJAOTZQYOKJ-UHFFFAOYSA-L,[Mg++].[Cl-].[Cl-],0.6922078268999999,0.0,1,G1,95.21100000000001,-6.3728,5.754,3.0,0.0,0.0,3.0,0.0,16.0,0.0,0.0,0.0,0.0,0.0,47.94456007309881,-0.0,2.7548875021634682
A-3603,"hexane-1,6-diamine; hexanedioic acid","InChI=1S/C6H16N2.C6H10O4/c7-5-3-1-2-4-6-8;7-5(8)3-1-2-4-6(9)10/h1-8H2;1-4H2,(H,7,8)(H,9,10)",UFFRSDWQMJYQNE-UHFFFAOYSA-N,NCCCCCCN.OC(=O)CCCCC(O)=O,0.2513647845,0.0,1,G1,262.34999999999997,1.1801999999999997,70.31640000000003,18.0,4.0,4.0,6.0,10.0,108.0,0.0,0.0,0.0,0.0,126.64000000000001,108.35073853822648,0.0,188.25409123734886
A-3605,vanadium oxide sulphate,"InChI=1S/H2O4S.O.V/c1-5(2,3)4;;/h(H2,1,2,3,4);;/q;;+2/p-2",UUUGYDOQQLOJQA-UHFFFAOYSA-L,[O-][S]([O-])(=O)=O.O=[V++],0.45711861880000004,0.0,1,G1,163.004,-1.4592999999999996,11.161100000000001,7.0,5.0,0.0,7.0,0.0,41.0,0.0,0.0,0.0,0.0,97.32999999999998,49.5062133689381,0.0,102.04184397996642
A-3606,lithium(1+) ion perchlorate,"InChI=1S/ClHO4.Li.3H2O/c2-1(3,4)5;;;;/h(H,2,3,4,5);;3*1H2/q;+1;;;/p-1",JAWYRNYHJJDXHX-UHFFFAOYSA-M,[Li+].O.O.O.[O-][Cl](=O)(=O)=O,0.4612188619,0.0,1,G1,160.435,-10.226099999999997,10.841399999999998,9.0,4.0,0.0,9.0,0.0,56.0,0.0,0.0,0.0,0.0,186.74,64.75172800036515,-1.3333333150000002e-08,24.38761556290452
A-3608,potassium nonafluorobutane-1-sulfonate,"InChI=1S/C4HF9O3S.K/c5-1(6,3(9,10)11)2(7,8)4(12,13)17(14,15)16;/h(H,14,15,16);/q;+1/p-1",LVTHXRLARFLXNR-UHFFFAOYSA-M,[K+].[O-][S](=O)(=O)C(F)(F)C(F)(F)C(F)(F)C(F)(F)F,-0.8645162178,0.03174504579303187,3,G5,338.18799999999993,-1.0387,30.593200000000007,18.0,3.0,0.0,14.0,3.0,104.0,0.0,0.0,0.0,0.0,57.199999999999996,135.87509670275867,0.0,398.52603557774574
A-3609,"2-[(E)-2-{4-[ethyl(2-hydroxyethyl)amino]phenyl}diazen-1-yl]-6-methoxy-3-methyl-1,3-benzothiazol-3-ium chloride","InChI=1S/C19H23N4O2S.ClH/c1-4-23(11-12-24)15-7-5-14(6-8-15)20-21-19-22(2)17-10-9-16(25-3)13-18(17)26-19;/h5-10,13,24H,4,11-12H2,1-3H3;1H/q+1;/p-1",XZLJSWJFZGBAQT-UHFFFAOYSA-M,[Cl-].CCN(CCO)c1ccc(cc1)N=Nc2sc3cc(OC)ccc3[n+]2C,-0.9467714818,0.0,1,G1,406.9390000000002,0.9724000000000008,105.14380000000006,27.0,6.0,1.0,8.0,7.0,144.0,3.0,0.0,0.0,3.0,61.300000000000004,168.69728103057395,2.6133303967589968e-06,911.9636919723346
A-3610,"2-[(E)-2-{4-[ethyl(2-hydroxyethyl)amino]phenyl}diazen-1-yl]-6-methoxy-3-methyl-1,3-benzothiazol-3-ium methyl sulfate","InChI=1S/C19H23N4O2S.CH4O4S/c1-4-23(11-12-24)15-7-5-14(6-8-15)20-21-19-22(2)17-10-9-16(25-3)13-18(17)26-19;1-5-6(2,3)4/h5-10,13,24H,4,11-12H2,1-3H3;1H3,(H,2,3,4)/q+1;/p-1",MHOFGBJTSNWTDT-UHFFFAOYSA-M,CCN(CCO)c1ccc(cc1)N=Nc2sc3cc(OC)ccc3[n+]2C.CO[S]([O-])(=O)=O,-1.0208150872,0.0,1,G1,482.58400000000023,3.0614000000000017,121.85000000000005,32.0,10.0,1.0,12.0,8.0,174.0,3.0,0.0,0.0,3.0,127.72999999999999,190.86614616155595,5.344870832939098e-07,1146.8564091678522
A-3611,butyl 2-hydroxyacetate,"InChI=1S/C6H12O3/c1-2-3-4-9-6(8)5-7/h7H,2-5H2,1H3",VFGRALUHHHDIQI-UHFFFAOYSA-N,CCCCOC(=O)CO,-0.4583389122,0.0,1,G1,132.159,0.322,32.95279999999998,9.0,3.0,1.0,3.0,4.0,54.0,0.0,0.0,0.0,0.0,46.53,54.63326268155924,2.9730624080867365,80.37215811651096
A-3612,methyl 2-chloroacetate,"InChI=1S/C3H5ClO2/c1-6-3(5)2-4/h2H2,1H3",QABLOFMHHSOFRJ-UHFFFAOYSA-N,COC(=O)CCl,-0.37276796100000004,0.0,1,G1,108.52400000000002,0.3981999999999999,22.735999999999994,6.0,2.0,0.0,3.0,1.0,36.0,0.0,0.0,0.0,0.0,26.3,41.04746881305508,2.9881608821342693,46.75488750216347
A-3613,cadmium dichloride,InChI=1S/Cd.2ClH/h;2*1H/q+2;;/p-2,YKYOUMDCQGMQQO-UHFFFAOYSA-L,[Cl-].[Cl-].[Cd++],0.3967110896,0.0,1,G1,183.318,-5.9945,0.0,3.0,0.0,0.0,3.0,0.0,16.0,0.0,0.0,0.0,0.0,0.0,51.957215838564146,-0.0,2.7548875021634682
A-3614,sodium 2-bromoethane-1-sulfonate,"InChI=1S/C2H5BrO3S.Na/c3-1-2-7(4,5)6;/h1-2H2,(H,4,5,6);/q;+1/p-1",HNFOAHXBHLWKNF-UHFFFAOYSA-M,[Na+].[O-][S](=O)(=O)CCBr,0.332748699,0.0,1,G1,211.01199999999997,-3.069499999999999,28.358199999999997,8.0,3.0,0.0,6.0,2.0,44.0,0.0,0.0,0.0,0.0,57.199999999999996,79.01377638062009,0.0,130.21884910034808
A-3615,"benzene-1,2-diol","InChI=1S/C6H6O2/c7-5-3-1-2-4-6(5)8/h1-4,7-8H",YCIMNLLNPGFGHC-UHFFFAOYSA-N,Oc1ccccc1O,0.6123418909,0.05611815265000003,2,G3,110.11199999999998,1.0977999999999999,29.771599999999992,8.0,2.0,2.0,2.0,0.0,42.0,1.0,0.0,0.0,1.0,40.46,47.01987062388899,3.134861511345448,162.63833891467198
A-3616,"N,N-diethylhydroxylamine","InChI=1S/C4H11NO/c1-3-5(6)4-2/h6H,3-4H2,1-2H3",FVCOIAYSJZGECG-UHFFFAOYSA-N,CCN(O)CC,0.7036319098,0.05587066045,2,G3,89.138,0.7174,24.707499999999992,6.0,2.0,1.0,2.0,2.0,38.0,0.0,0.0,0.0,0.0,23.47,38.34218329289674,2.7541847860376616,26.72905595320056
A-3617,bis(amino(imino)methanaminium) carbonate,"InChI=1S/2CH5N3.CH2O3/c3*2-1(3)4/h2*(H5,2,3,4);(H2,2,3,4)",STIAPHVBRDNOAJ-UHFFFAOYSA-N,NC(N)=N.NC(N)=N.OC(O)=O,0.39753485619999995,0.0,1,G1,180.168,-2.10046,42.85659999999999,12.0,3.0,8.0,9.0,0.0,72.0,0.0,0.0,0.0,0.0,209.30999999999997,67.96105195469745,-1.0124999957812501e-07,115.58797503894243
A-3618,lithium(1+) ion acetate,"InChI=1S/C2H4O2.Li/c1-2(3)4;/h1H3,(H,3,4);/q;+1/p-1",XIXADJRWDQXREU-UHFFFAOYSA-M,[Li+].CC([O-])=O,0.8337672926999999,0.12485210547342136,5,G5,65.985,-4.2398,10.681000000000001,5.0,2.0,0.0,3.0,0.0,24.0,0.0,0.0,0.0,0.0,40.129999999999995,42.357514520398354,0.0,30.629190483090685
A-3621,4-{2-[(2-methylprop-2-enoyl)oxy]ethoxy}-4-oxobutanoic acid,"InChI=1S/C10H14O6/c1-7(2)10(14)16-6-5-15-9(13)4-3-8(11)12/h1,3-6H2,2H3,(H,11,12)",ZEWLHMQYEZXSBH-UHFFFAOYSA-N,CC(=C)C(=O)OCCOC(=O)CCC(O)=O,-0.706708916,0.0,1,G1,230.21599999999995,0.5136999999999998,53.601800000000026,16.0,5.0,1.0,6.0,7.0,90.0,0.0,0.0,0.0,0.0,89.9,92.84001753655583,3.5159059640770076,293.6843797833106
A-3622,"(4S,4aS,5aS,6S,12aR)-7-chloro-4-(dimethylamino)-1,6,10,11,12a-pentahydroxy-3,12-dioxo-3,4,4a,5,5a,6,12,12a-octahydrotetracene-2-carboxamide hydrochloride","InChI=1S/C21H21ClN2O8.ClH/c1-24(2)14-7-5-6-10(16(27)12-9(25)4-3-8(22)11(12)15(6)26)18(29)21(7,32)19(30)13(17(14)28)20(23)31;/h3-4,6-7,14-15,25-27,31-32H,5,23H2,1-2H3;1H/b20-13-;/t6-,7-,14-,15-,21-;/m0./s1",POPIIQNWBBGGRT-YHBXTMLJSA-N,[Cl-].CN(C)[C@H]1[C@@H]2C[C@@H]3[C@H](O)c4c(Cl)ccc(O)c4C(=C3C(=O)[C@]2(O)C(=O)\C(=C(N)/O)C1=O)O.[H+],-1.0469016509,0.0,1,G1,501.31900000000036,-2.7751999999999963,111.62240000000006,33.0,10.0,6.0,12.0,1.0,178.0,1.0,2.0,3.0,4.0,181.61999999999998,200.00545258774392,2.0416653908931783e-06,1163.6726536406475
A-3623,2-methylbutanoic acid,"InChI=1S/C5H10O2/c1-3-4(2)5(6)7/h4H,3H2,1-2H3,(H,6,7)",WLAMNBDJUVNPJU-UHFFFAOYSA-N,CCC(C)C(O)=O,-0.3559535751,0.0,1,G1,102.13299999999998,1.1171,27.090799999999987,7.0,1.0,1.0,2.0,2.0,42.0,0.0,0.0,0.0,0.0,37.3,43.15477533765576,3.3434170589539596,68.48040587771366
A-3625,diiron(3+) ion trisulfate,"InChI=1S/2Fe.3H2O4S/c;;3*1-5(2,3)4/h;;3*(H2,1,2,3,4)/q2*+3;;;/p-6",RUTXIHLAWFEWGM-UHFFFAOYSA-H,[Fe+3].[Fe+3].[O-][S]([O-])(=O)=O.[O-][S]([O-])(=O)=O.[O-][S]([O-])(=O)=O,1.0415240791,0.0,1,G1,399.87900000000013,-4.018999999999999,31.4238,17.0,12.0,0.0,17.0,0.0,106.0,0.0,0.0,0.0,0.0,240.77999999999997,117.47283267981686,-3.99999998625e-08,340.6558969276571
A-3629,zinc dibromide,InChI=1S/2BrH.Zn/h2*1H;/q;;+2/p-2,VNDYJBBGRKZCSX-UHFFFAOYSA-L,[Zn++].[Br-].[Br-],1.2977429939,0.0,1,G1,225.19799999999998,-5.9945,0.0,3.0,0.0,0.0,3.0,0.0,16.0,0.0,0.0,0.0,0.0,0.0,53.277210027363544,-0.0,2.7548875021634682
A-3631,"chromium(3+) ion pentasodium bis(8-[(4-amino-6-chloro-1,3,5-triazin-2-yl)amino]-2-[(E)-2-(5-nitro-2-oxidophenyl)diazen-1-yl]-3,6-disulfonatonaphthalen-1-olate)","InChI=1S/2C19H13ClN8O10S2.Cr.5Na/c2*20-17-23-18(21)25-19(24-17)22-11-6-9(39(33,34)35)3-7-4-13(40(36,37)38)15(16(30)14(7)11)27-26-10-5-8(28(31)32)1-2-12(10)29;;;;;;/h2*1-6,29-30H,(H,33,34,35)(H,36,37,38)(H3,21,22,23,24,25);;;;;;/q;;+3;5*+1/p-8",AICVXAYCWMYBPS-UHFFFAOYSA-F,[Na+].[Na+].[Na+].[Na+].[Na+].[Cr+3].Nc1nc(Cl)nc(Nc2cc(cc3cc(c(N=Nc4cc(ccc4[O-])[N+]([O-])=O)c([O-])c23)[S]([O-])(=O)=O)[S]([O-])(=O)=O)n1.Nc5nc(Cl)nc(Nc6cc(cc7cc(c(N=Nc8cc(ccc8[O-])[N+]([O-])=O)c([O-])c67)[S]([O-])(=O)=O)[S]([O-])(=O)=O)n5,-0.4949751746,0.0,1,G1,1384.7740000000001,-12.41650000000002,257.1418,86.0,34.0,4.0,48.0,14.0,419.0,8.0,0.0,0.0,8.0,610.2,611.6214577559713,8.039130104072795e-07,4219.212870027797
A-3636,sodium 3-(4-methyl-2-nitrophenoxy)propanesulphonate,"InChI=1S/C10H13NO6S.Na/c1-8-3-4-10(9(7-8)11(12)13)17-5-2-6-18(14,15)16;/h3-4,7H,2,5-6H2,1H3,(H,14,15,16);/q;+1/p-1",NYUMEYVVSINMIU-UHFFFAOYSA-M,[Na+].Cc1ccc(OCCC[S]([O-])(=O)=O)c(c1)[N+]([O-])=O,0.1703103591,0.0,1,G1,297.264,-1.7786799999999974,62.50960000000002,19.0,6.0,0.0,9.0,6.0,100.0,1.0,0.0,0.0,1.0,109.57000000000002,132.69972816184264,3.23999795160134e-06,544.9509008937364
A-3639,"2-butyl-1,3-diazaspiro[4.4]non-1-en-4-one 2-butyl-1,3-diazaspiro[4.4]non-2-en-4-one dihydrochloride","InChI=1S/2C11H18N2O.2ClH/c2*1-2-3-6-9-12-10(14)11(13-9)7-4-5-8-11;;/h2*2-8H2,1H3,(H,12,13,14);2*1H",IIJDGRLUYMOVFN-UHFFFAOYSA-N,Cl.Cl.CCCCC1=NC2(CCCC2)C(=O)N1.CCCCC3=NC(=O)C4(CCCC4)N3,-1.019613944,0.0,1,G1,461.47800000000035,4.879000000000002,127.09940000000006,30.0,4.0,2.0,8.0,6.0,172.0,0.0,2.0,4.0,4.0,82.92,192.90514201369336,2.812499931708986e-07,651.5229735286867
A-3640,"trisodium 5-({4-chloro-6-[ethyl(phenyl)amino]-1,3,5-triazin-2-yl}amino)-4-hydroxy-3-[(E)-2-(2-sulfonatophenyl)diazen-1-yl]naphthalene-2,7-disulfonate","InChI=1S/C27H22ClN7O10S3.3Na/c1-2-35(16-8-4-3-5-9-16)27-31-25(28)30-26(32-27)29-19-14-17(46(37,38)39)12-15-13-21(48(43,44)45)23(24(36)22(15)19)34-33-18-10-6-7-11-20(18)47(40,41)42;;;/h3-14,33H,2H2,1H3,(H,37,38,39)(H,40,41,42)(H,43,44,45)(H,29,30,31,32);;;/q;3*+1/p-3/b34-23+;;;",LTDWIWZCTPXWKI-BGSWCMMMSA-K,[Na+].[Na+].[Na+].CCN(c1ccccc1)c2nc(Cl)nc(Nc3cc(cc4C=C(\C(=N/Nc5ccccc5[S]([O-])(=O)=O)C(=O)c34)[S]([O-])(=O)=O)[S]([O-])(=O)=O)n2,-0.2667452841,0.0,1,G1,802.1120000000004,-6.2027,169.11449999999982,51.0,17.0,2.0,24.0,10.0,250.0,4.0,0.0,1.0,5.0,266.99999999999994,363.0717599498923,3.0044416396088997e-06,2370.8047930756975
A-3641,zinc(2+) ion dichloride,InChI=1S/2ClH.Zn/h2*1H;/q;;+2/p-2,JIAARYAFYJHUJI-UHFFFAOYSA-L,[Cl-].[Cl-].[Zn++],0.5010006364,0.14722290664999998,2,G3,136.296,-5.9945,0.0,3.0,0.0,0.0,3.0,0.0,16.0,0.0,0.0,0.0,0.0,0.0,44.5579923075674,-0.0,2.7548875021634682
A-3642,thymidine,"InChI=1S/C10H14N2O5/c1-5-3-12(10(16)11-9(5)15)8-2-6(14)7(4-13)17-8/h3,6-8,13-14H,2,4H2,1H3,(H,11,15,16)",IQFYYKKMVGJFEH-UHFFFAOYSA-N,CC1=CN(C2CC(O)C(CO)O2)C(=O)NC1=O,-0.7420620876999999,0.0,1,G1,242.23099999999997,-1.5142799999999992,57.67930000000002,17.0,6.0,3.0,7.0,2.0,94.0,1.0,1.0,1.0,2.0,104.54999999999998,96.28954903482216,2.335396041923274,520.1629217962848
A-3646,"2-[(E)-2-[4-(diethylamino)phenyl]ethenyl]-1,3,3-trimethyl-3H-indol-1-ium acetate","InChI=1S/C23H29N2.C2H4O2/c1-6-25(7-2)19-15-12-18(13-16-19)14-17-22-23(3,4)20-10-8-9-11-21(20)24(22)5;1-2(3)4/h8-17H,6-7H2,1-5H3;1H3,(H,3,4)/q+1;/p-1",KEUVYXFBMUFRGG-UHFFFAOYSA-M,CCN(CC)c1ccc(cc1)C=CC2=[N+](C)c3ccccc3C2(C)C.CC([O-])=O,-0.9604187817000001,0.0,1,G1,392.5430000000002,4.008400000000003,120.03740000000006,29.0,3.0,0.0,4.0,5.0,154.0,2.0,0.0,1.0,3.0,46.379999999999995,174.36402527543126,6.86999829551753e-07,900.6755277454658
A-3647,"2-[2-[4-(diethylamino)phenyl]vinyl]-1,3,3-trimethyl-3H-indolium dihydrogen phosphate","InChI=1S/C23H29N2.H3O4P/c1-6-25(7-2)19-15-12-18(13-16-19)14-17-22-23(3,4)20-10-8-9-11-21(20)24(22)5;1-5(2,3)4/h8-17H,6-7H2,1-5H3;(H3,1,2,3,4)/q+1;/p-1",DNQYATSEPGGRFT-UHFFFAOYSA-M,CCN(CC)c1ccc(cc1)C=CC2=[N+](C)c3ccccc3C2(C)C.O[P](O)([O-])=O,-1.0004895676999999,0.0,1,G1,430.4850000000001,3.691600000000003,121.40050000000005,30.0,3.0,2.0,7.0,5.0,162.0,2.0,0.0,1.0,3.0,86.84,178.6106971254614,5.745332205889748e-07,962.6878914480658
A-3648,disodium 4-[(3-carboxylato-2-hydroxynaphthalen-1-yl)methyl]-3-hydroxynaphthalene-2-carboxylate,"InChI=1S/C23H16O6.Na/c24-20-16(14-7-3-1-5-12(14)9-18(20)22(26)27)11-17-15-8-4-2-6-13(15)10-19(21(17)25)23(28)29;/h1-10,24-25H,11H2,(H,26,27)(H,28,29);",MQIPLTYHZCWJRA-UHFFFAOYSA-N,[Na].OC(=O)c1cc2ccccc2c(Cc3c(O)c(cc4ccccc34)C(O)=O)c1O,-0.9807588825,0.0,1,G1,411.3650000000001,4.010600000000002,113.70420000000003,30.0,4.0,4.0,7.0,4.0,145.0,4.0,0.0,0.0,4.0,115.06000000000002,192.8600315638047,2.5599973700027724e-06,1211.077690376409
A-3650,"diammonium 2,3-dihydroxybutanedioate","InChI=1S/C4H6O6.2H3N/c5-1(3(7)8)2(6)4(9)10;;/h1-2,5-6H,(H,7,8)(H,9,10);2*1H3/t1-,2-;;/m1../s1",NGPGDYLVALNKEG-OLXYHTOASA-N,N.N.O[C@H]([C@@H](O)C(O)=O)C(O)=O,0.36627676259999997,0.0,1,G1,184.14799999999997,-1.7986,37.32940000000001,12.0,6.0,6.0,8.0,3.0,74.0,0.0,0.0,0.0,0.0,185.05999999999997,67.60555730778417,-4.049999586000043e-07,141.6270750562502
A-3651,5-(aminomethyl)-2-methylpyrimidin-4-amine,"InChI=1S/C6H10N4/c1-4-9-3-5(2-7)6(8)10-4/h3H,2,7H2,1H3,(H2,8,9,10)",OZOHTVFCSKFMLL-UHFFFAOYSA-N,Cc1ncc(CN)c(N)n1,0.49030656270000006,0.0,1,G1,138.174,-0.17408000000000012,39.0728,10.0,4.0,2.0,4.0,1.0,54.0,1.0,0.0,0.0,1.0,77.82,59.28036470420864,3.0699827149988397,233.18946744189822
A-3652,manganese(2+) dinitrate,InChI=1S/Mn.2NO3/c;2*2-1(3)4/q+2;2*-1,MIVBAHRSNUNMPP-UHFFFAOYSA-N,[Mn++].[O-][N+]([O-])=O.[O-][N+]([O-])=O,1.377095201,0.0,1,G1,178.946,-0.4807000000000001,20.722800000000003,9.0,6.0,0.0,9.0,0.0,53.0,0.0,0.0,0.0,0.0,132.4,58.77825628753051,-7.199999951999999e-08,69.05865002596163
A-3653,(3-{[3-(dimethylamino)propyl]amino}propyl)dimethylamine,"InChI=1S/C10H25N3/c1-12(2)9-5-7-11-8-6-10-13(3)4/h11H,5-10H2,1-4H3",BXYVQNNEFZOBOZ-UHFFFAOYSA-N,CN(C)CCCNCCCN(C)C,0.3558508036,0.15627689434999997,2,G3,187.331,0.47940000000000116,59.21170000000005,13.0,3.0,1.0,3.0,8.0,80.0,0.0,0.0,0.0,0.0,18.509999999999998,83.09325958141379,2.9163621870428393,90.34298055646549
A-3654,"2-(2,4-diaminophenoxy)ethan-1-ol dihydrochloride","InChI=1S/C8H12N2O2.2ClH/c9-6-1-2-8(7(10)5-6)12-4-3-11;;/h1-2,5,11H,3-4,9-10H2;2*1H",VXYWXJXCQSDNHX-UHFFFAOYSA-N,[H+].[H+].[Cl-].[Cl-].Nc1ccc(OCCO)c(N)c1,0.24615929739999998,0.0,1,G1,241.11799999999997,-5.5448999999999975,50.07160000000001,14.0,4.0,3.0,6.0,3.0,82.0,1.0,0.0,0.0,1.0,81.5,98.02463096810841,-1.7999998755000092e-07,280.2152649298467
A-3655,"trisodium 2-hydroxypropane-1,2,3-tricarboxylate","InChI=1S/C6H8O7.3Na/c7-3(8)1-6(13,5(11)12)2-4(9)10;;;/h13H,1-2H2,(H,7,8)(H,9,10)(H,11,12);;;/q;3*+1/p-3",HRXKRNGNAMMEHJ-UHFFFAOYSA-K,[Na+].[Na+].[Na+].OC(CC([O-])=O)(CC([O-])=O)C([O-])=O,0.2166530911,0.09786845195,2,G3,258.06899999999996,-14.240600000000002,29.204799999999995,16.0,7.0,1.0,10.0,5.0,74.0,0.0,0.0,0.0,0.0,140.62,157.46566177686378,-2.399999741500029e-07,238.5067183824432
A-3657,aluminium(3+) ion trinitrate,InChI=1S/Al.3NO3.9H2O/c;3*2-1(3)4;;;;;;;;;/h;;;;9*1H2/q+3;3*-1;;;;;;;;;,SWCIQHXIXUMHKA-UHFFFAOYSA-N,O.O.O.O.O.O.O.O.O.[Al+3].[O-][N+]([O-])=O.[O-][N+]([O-])=O.[O-][N](=O)=O,-0.9408131942,0.0,1,G1,375.12900000000013,-8.520399999999993,69.36240000000002,22.0,9.0,0.0,22.0,0.0,144.0,0.0,0.0,0.0,0.0,482.09999999999997,128.79000899072884,-4.090909083333333e-09,115.88193312083789
A-3658,sodium fluoride,InChI=1S/FH.Na/h1H;/q;+1/p-1,PUZPDOWCWNUUKD-UHFFFAOYSA-M,[F-].[Na+],-0.0021872624,0.0,1,G1,41.988,-5.992,0.0,2.0,0.0,0.0,2.0,0.0,8.0,0.0,0.0,0.0,0.0,0.0,34.5105403470167,0.0,2.0
A-3661,1-phenylethanamine,"InChI=1S/C8H11N/c1-7(9)8-5-3-2-4-6-8/h2-7H,9H2,1H3/t7-/m0/s1",RQEUFEKYXDPUSK-ZETCQYMHSA-N,C[C@H](N)c1ccccc1,-0.4601924093,0.0,1,G1,121.18299999999995,1.7063000000000001,39.04440000000001,9.0,1.0,1.0,1.0,1.0,48.0,1.0,0.0,0.0,1.0,26.02,55.50117804530289,2.848234050597751,167.1823264341432
A-3665,sodium 4-(methoxycarbonyl)phenolate,"InChI=1S/C8H8O3.Na/c1-11-8(10)6-2-4-7(9)5-3-6;/h2-5,9H,1H3;/q;+1/p-1",PESXGULMKCKJCC-UHFFFAOYSA-M,[Na+].COC(=O)c1ccc([O-])cc1,0.3803001877,0.0,1,G1,174.13099999999997,-2.4491999999999985,37.22750000000001,12.0,3.0,0.0,4.0,1.0,58.0,1.0,0.0,0.0,1.0,49.36,92.6439880527488,1.2099997384750588e-06,255.5104122853712
A-3666,sodium hydrogen 2-aminopentanedioate,"InChI=1S/C5H9NO4.Na/c6-3(5(9)10)1-2-4(7)8;/h3H,1-2,6H2,(H,7,8)(H,9,10);/q;+1/p-1",LPUQAYUQRXPFSQ-UHFFFAOYSA-M,[Na+].NC(CCC(O)=O)C([O-])=O,0.3919616292,0.12611802573665337,3,G5,169.112,-5.067599999999998,29.852199999999996,11.0,4.0,2.0,6.0,4.0,58.0,0.0,0.0,0.0,0.0,103.44999999999999,85.86382150962022,0.0,149.417843933085
A-3667,sodium azide,InChI=1S/N3.Na/c1-3-2;/q-1;+1,PXIPVTKHYLBLMZ-UHFFFAOYSA-N,[Na+].[N-]=[N+]=[N-],0.8040134946999999,0.0,1,G1,65.011,-2.1299,10.077,4.0,0.0,0.0,4.0,0.0,16.0,0.0,0.0,0.0,0.0,58.7,45.71145906832435,0.0,24.264662506490403
A-3668,manganese(2+) ion disodium 2-({2-[bis(carboxylatomethyl)amino]ethyl}(carboxylatomethyl)amino)acetate,"InChI=1S/C10H16N2O8.Mn.2Na/c13-7(14)3-11(4-8(15)16)1-2-12(5-9(17)18)6-10(19)20;;;/h1-6H2,(H,13,14)(H,15,16)(H,17,18)(H,19,20);;;/q;+2;2*+1/p-4",ZQHKAIDDHTYINE-UHFFFAOYSA-J,[Na+].[Na+].[Mn++].[O-]C(=O)CN(CCN(CC([O-])=O)CC([O-])=O)CC([O-])=O,0.024802502,0.0,1,G1,389.1300000000002,-13.404500000000008,52.90800000000002,23.0,10.0,0.0,13.0,11.0,119.0,0.0,0.0,0.0,0.0,167.0,186.78884032440953,-6.016665005222694e-07,331.05724414428414
A-3671,diammonium oxalate,"InChI=1S/C2H2O4.2H3N/c3-1(4)2(5)6;;/h(H,3,4)(H,5,6);2*1H3",VBIXEXWLHSRNKB-UHFFFAOYSA-N,[NH4+].[NH4+].[O-]C(=O)C([O-])=O,-0.47258150130000004,0.13605615822481928,4,G5,124.09599999999999,-2.7614,21.98360000000001,8.0,4.0,2.0,6.0,0.0,50.0,0.0,0.0,0.0,0.0,153.26,45.287205574598936,-1.249999955000002e-07,78.03910001730776