ID,Name,InChI,InChIKey,SMILES,Solubility,SD,Ocurrences,Group,MolWt,MolLogP,MolMR,HeavyAtomCount,NumHAcceptors,NumHDonors,NumHeteroatoms,NumRotatableBonds,NumValenceElectrons,NumAromaticRings,NumSaturatedRings,NumAliphaticRings,RingCount,TPSA,LabuteASA,BalabanJ,BertzCT
A-4110,sodium 3-nitrobenzene-1-sulfonate,"InChI=1S/C6H5NO5S.Na/c8-7(9)5-2-1-3-6(4-5)13(10,11)12;/h1-4H,(H,10,11,12);/q;+1/p-1",LJRGBERXYNQPJI-UHFFFAOYSA-M,[Na+].[O-][N+](=O)c1cccc(c1)[S]([O-])(=O)=O,-0.0514554578,0.7835856628456082,4,G4,225.15699999999995,-2.4970999999999988,41.05960000000002,14.0,5.0,0.0,8.0,2.0,70.0,1.0,0.0,0.0,1.0,100.34,102.12641447474932,1.6899995544251205e-06,443.29001530236616
A-4112,"2,6,6-trimethylcyclohex-2-ene-1,4-dione","InChI=1S/C9H12O2/c1-6-4-7(10)5-9(2,3)8(6)11/h4H,5H2,1-3H3",AYJXHIDNNLJQDT-UHFFFAOYSA-N,CC1=CC(=O)CC(C)(C)C1=O,-0.8779041501,0.0,1,G1,152.19299999999998,1.5008,42.16900000000002,11.0,2.0,0.0,2.0,0.0,60.0,0.0,0.0,1.0,1.0,34.14,66.28639795737645,3.054290082931889,246.28834790885676
A-4114,2-[4-(2-hydroxyethoxy)but-2-ynoxy]ethanol,"InChI=1S/C8H14O4/c9-3-7-11-5-1-2-6-12-8-4-10/h9-10H,3-8H2",IXAWTPMDMPUGLV-UHFFFAOYSA-N,OCCOCC#CCOCCO,0.7589618218,0.0,1,G1,174.19599999999997,-0.9924000000000002,43.58560000000002,12.0,4.0,2.0,4.0,6.0,70.0,0.0,0.0,0.0,0.0,58.92,72.10862918387086,3.0081985082069003,121.72862410467502
A-4115,"2-hydroxy-3,5-dinitrobenzoic acid","InChI=1S/C7H4N2O7/c10-6-4(7(11)12)1-3(8(13)14)2-5(6)9(15)16/h1-2,10H,(H,11,12)",LWFUFLREGJMOIZ-UHFFFAOYSA-N,OC(=O)c1cc(cc(c1O)[N+]([O-])=O)[N+]([O-])=O,-1.0571257520000001,0.0,1,G1,228.11599999999999,0.9067999999999998,48.3749,16.0,6.0,2.0,9.0,3.0,84.0,1.0,0.0,0.0,1.0,143.81,86.85228628332895,3.5727545380551327,460.5038631394357
A-4116,2-phenylethan-1-ol,"InChI=1S/C8H10O/c9-7-6-8-4-2-1-3-5-8/h1-5,9H,6-7H2",WRMNZCZEMHIOCP-UHFFFAOYSA-N,OCCc1ccccc1,-0.7859239136,0.04228407906335976,3,G5,122.16699999999996,1.2214,37.23180000000001,9.0,1.0,1.0,1.0,2.0,48.0,1.0,0.0,0.0,1.0,20.23,54.95552110048619,2.61489994009295,157.4784207656209
A-4119,ethenyl acetate,"InChI=1S/C4H6O2/c1-3-6-4(2)5/h3H,1H2,2H3",XTXRWKRVRITETP-UHFFFAOYSA-N,CC(=O)OC=C,-0.6339227122,0.0,1,G1,86.09,0.693,21.96299999999999,6.0,2.0,0.0,2.0,1.0,34.0,0.0,0.0,0.0,0.0,26.3,36.41954166838576,3.046489080910934,65.94833690207419
A-4123,salicylonitrile,"InChI=1S/C7H5NO/c8-5-6-3-1-2-4-7(6)9/h1-4,9H",CHZCERSEMVWNHL-UHFFFAOYSA-N,Oc1ccccc1C#N,-0.7749656265,0.09540824228726037,3,G5,119.12299999999999,1.2638800000000001,32.821799999999996,9.0,2.0,1.0,2.0,0.0,44.0,1.0,0.0,0.0,1.0,44.019999999999996,52.9831586675583,3.199326438626795,249.33821798626082
A-4124,"sodium 1-amino-4-bromo-9,10-dioxo-9,10-dihydroanthracene-2-sulfonate","InChI=1S/C14H8BrNO5S.Na/c15-8-5-9(22(19,20)21)12(16)11-10(8)13(17)6-3-1-2-4-7(6)14(11)18;/h1-5H,16H2,(H,19,20,21);/q;+1/p-1",TXMRAEGWZZVGIH-UHFFFAOYSA-M,[Na+].Nc1c(cc(Br)c2C(=O)c3ccccc3C(=O)c12)[S]([O-])(=O)=O,-1.3055373023,0.0,1,G1,404.1730000000002,-1.2851999999999995,79.8246,23.0,6.0,1.0,9.0,1.0,112.0,2.0,0.0,1.0,3.0,117.35999999999999,161.78506853631924,1.919998833867396e-06,971.3731866889484
A-4125,trimethylsilane,InChI=1S/C3H9Si/c1-4(2)3/h1-3H3,DCERHCFNWRGHLK-UHFFFAOYSA-N,C[Si](C)C,-0.5634276852000001,0.6516034575,2,G2,73.19099999999999,1.3705999999999998,23.34599999999999,4.0,0.0,0.0,1.0,0.0,25.0,0.0,0.0,0.0,0.0,0.0,29.44679712080307,2.3237900077244498,8.0