ID,Name,InChI,InChIKey,SMILES,Solubility,SD,Ocurrences,Group,MolWt,MolLogP,MolMR,HeavyAtomCount,NumHAcceptors,NumHDonors,NumHeteroatoms,NumRotatableBonds,NumValenceElectrons,NumAromaticRings,NumSaturatedRings,NumAliphaticRings,RingCount,TPSA,LabuteASA,BalabanJ,BertzCT
A-1934,"octa-1,7-diene","InChI=1S/C8H14/c1-3-5-7-8-6-4-2/h3-4H,1-2,5-8H2",XWJBRBSPAODJER-UHFFFAOYSA-N,C=CCCCCC=C,-4.0232731502,0.0,1,G1,110.19999999999999,2.918800000000002,38.862,8.0,0.0,0.0,0.0,5.0,46.0,0.0,0.0,0.0,0.0,0.0,51.91463976423729,2.7079488122831483,52.43856189774725
A-1939,2-tert-butylcyclohexyl acetate,"InChI=1S/C12H22O2/c1-9(13)14-11-8-6-5-7-10(11)12(2,3)4/h10-11H,5-8H2,1-4H3/t10-,11+/m0/s1",FINOAUDUYKVGDS-WDEREUQCSA-N,CC(=O)O[C@@H]1CCCC[C@@H]1C(C)(C)C,-4.2973358545,0.0,1,G1,198.30599999999998,3.1544000000000016,56.96700000000005,14.0,2.0,0.0,2.0,1.0,82.0,0.0,1.0,1.0,1.0,26.3,87.02285046221365,2.6375785901502637,202.85749387444827
A-1940,"5-chloro-2-(2,4-dichlorophenoxy)phenol","InChI=1S/C12H7Cl3O2/c13-7-1-3-11(9(15)5-7)17-12-4-2-8(14)6-10(12)16/h1-6,16H",XEFQLINVKFYRCS-UHFFFAOYSA-N,Oc1cc(Cl)ccc1Oc2ccc(Cl)cc2Cl,-4.4617160697000005,0.10124395110756627,4,G5,289.54499999999996,5.144700000000002,69.65280000000003,17.0,2.0,1.0,5.0,2.0,88.0,2.0,0.0,0.0,2.0,29.46,113.3060749879089,2.3122378354877973,505.9421592432012
A-1942,N-[3-(dimethylamino)propyl]octadecanamide,"InChI=1S/C23H48N2O/c1-4-5-6-7-8-9-10-11-12-13-14-15-16-17-18-20-23(26)24-21-19-22-25(2)3/h4-22H2,1-3H3,(H,24,26)",WWVIUVHFPSALDO-UHFFFAOYSA-N,CCCCCCCCCCCCCCCCCC(=O)NCCCN(C)C,-4.5666142382,0.6712113403999997,2,G2,368.6500000000001,6.3158000000000065,115.72670000000011,26.0,2.0,1.0,3.0,20.0,156.0,0.0,0.0,0.0,0.0,32.34,164.2391954984102,3.1132141182822313,291.93240539975625
A-1944,sodium 4-(4-(2-hydroxynaphthalenylazo)phenylazo)benzenesulphonate,"InChI=1S/C22H16N4O4S.Na/c27-21-14-5-15-3-1-2-4-20(15)22(21)26-25-17-8-6-16(7-9-17)23-24-18-10-12-19(13-11-18)31(28,29)30;/h1-14,25H,(H,28,29,30);/q;+1/b24-23?,26-22-;",AXECONFFMZNCKN-SRZPWQCFSA-N,[Na+].O[S](=O)(=O)c1ccc(cc1)N=Nc2ccc(N\N=C3/C(=O)C=Cc4ccccc34)cc2,-4.65844166,0.0,1,G1,455.4510000000002,1.7648000000000004,117.51730000000002,32.0,7.0,2.0,10.0,5.0,154.0,3.0,0.0,1.0,4.0,120.54999999999998,206.37558207048653,2.88999525665386e-06,1333.1036069941936
A-1946,magnesium(2+) ion dihydroxide,InChI=1S/Mg.2H2O/h;2*1H2/q+2;;/p-2,VTHJTEIRLNZDEV-UHFFFAOYSA-L,[OH-].[OH-].[Mg++],-4.4691448782,0.3017536095888779,4,G5,58.319,-0.7343999999999999,9.6256,3.0,2.0,0.0,3.0,0.0,16.0,0.0,0.0,0.0,0.0,60.0,34.59988042482873,-0.0,2.7548875021634682
A-1949,"1,3,3-trimethyl-2-oxabicyclo[2.2.2]octane; 1-methyl-4-(prop-1-en-2-yl)cyclohex-1-ene; 2,6,6-trimethylbicyclo[3.1.1]hept-2-ene","InChI=1S/C10H18O.2C10H16/c1-9(2)8-4-6-10(3,11-9)7-5-8;1-7-4-5-8-6-9(7)10(8,2)3;1-8(2)10-6-4-9(3)5-7-10/h8H,4-7H2,1-3H3;4,8-9H,5-6H2,1-3H3;4,10H,1,5-7H2,2-3H3",YZYRWEREXOLDRZ-UHFFFAOYSA-N,CC(=C)C1CCC(=CC1)C.CC2=CCC3CC2C3(C)C.CC45CCC(CC4)C(C)(C)O5,-5.3356859318000005,1.6248009090500002,2,G2,426.7290000000003,9.051700000000002,135.191,31.0,1.0,0.0,1.0,1.0,176.0,0.0,4.0,6.0,6.0,9.23,193.3498150176976,1.319999987113257e-07,707.9388227395466
A-1953,dodecan-1-ol,"InChI=1S/C12H26O/c1-2-3-4-5-6-7-8-9-10-11-12-13/h13H,2-12H2,1H3",LQZZUXJYWNFBMV-UHFFFAOYSA-N,CCCCCCCCCCCCO,-4.9847464514999995,0.22595211613684302,4,G5,186.33899999999997,3.8996000000000035,58.92980000000006,13.0,1.0,1.0,1.0,10.0,80.0,0.0,0.0,0.0,0.0,20.23,83.54784803838828,2.7581498184332935,71.19366193720087
A-1954,copper thiocyanate,InChI=1S/CHNS.Cu/c2-1-3;/h3H;/q;+1/p-1,PDZKZMQQDCHTNF-UHFFFAOYSA-M,[Cu+].[S-]C#N,-4.8040109101,0.813608588647779,4,G4,121.631,0.01188,12.978,4.0,2.0,0.0,3.0,0.0,26.0,0.0,0.0,0.0,0.0,23.79,40.882517644920746,0.0,29.509775004326936
A-1956,"O,O,S-tris(4-aminophenyl) thiophosphate","InChI=1S/C18H18N3O3PS/c19-13-1-7-16(8-2-13)22-25(26,23-17-9-3-14(20)4-10-17)24-18-11-5-15(21)6-12-18/h1-12H,19-21H2",MBUAAMOJATXYKR-UHFFFAOYSA-N,Nc1ccc(O[P](=S)(Oc2ccc(N)cc2)Oc3ccc(N)cc3)cc1,-5.3094071365,0.0,1,G1,387.4010000000001,4.1945000000000014,108.7322,26.0,7.0,3.0,8.0,6.0,134.0,3.0,0.0,0.0,3.0,105.75,156.28582741439678,1.8769606130888221,793.4828195543632
A-1958,2-[4-[2-[4-[2-(2-methylprop-2-enoyloxy)ethoxy]phenyl]propan-2-yl]phenoxy]ethyl 2-methylprop-2-enoate,"InChI=1S/C27H32O6/c1-19(2)25(28)32-17-15-30-23-11-7-21(8-12-23)27(5,6)22-9-13-24(14-10-22)31-16-18-33-26(29)20(3)4/h7-14H,1,3,15-18H2,2,4-6H3",VIYWVRIBDZTTMH-UHFFFAOYSA-N,CC(=C)C(=O)OCCOc1ccc(cc1)C(C)(C)c2ccc(OCCOC(=O)C(C)=C)cc2,-5.3792018861,0.0,1,G1,452.5470000000003,5.0087000000000055,127.54800000000007,33.0,6.0,0.0,6.0,12.0,176.0,2.0,0.0,0.0,2.0,71.06,195.36064809525666,1.876568332885611,891.1761012149126
A-1959,"(3aR,5aS,9aS,9bR)-3a,6,6,9a-tetramethyl-dodecahydronaphtho[2,1-b]furan","InChI=1S/C16H28O/c1-14(2)8-5-9-15(3)12(14)6-10-16(4)13(15)7-11-17-16/h12-13H,5-11H2,1-4H3/t12-,13+,15-,16+/m0/s1",YPZUZOLGGMJZJO-LQKXBSAESA-N,CC1(C)CCC[C@@]2(C)[C@H]1CC[C@@]3(C)OCC[C@H]23,-5.0994877858,0.25911692009999987,2,G3,236.39899999999994,4.408000000000004,70.92700000000006,17.0,1.0,0.0,1.0,0.0,98.0,0.0,3.0,3.0,3.0,9.23,106.30943451269786,1.9773447987737445,317.4868683012557
A-1960,"3a,6,6,9a-tetramethyl-dodecahydronaphtho[2,1-b]furan","InChI=1S/C16H28O/c1-14(2)8-5-9-15(3)12(14)6-10-16(4)13(15)7-11-17-16/h12-13H,5-11H2,1-4H3",YPZUZOLGGMJZJO-UHFFFAOYSA-N,CC1(C)CCCC2(C)C1CCC3(C)OCCC23,-5.0994877858,0.0,1,G1,236.39899999999994,4.408000000000004,70.92700000000006,17.0,1.0,0.0,1.0,0.0,98.0,0.0,3.0,3.0,3.0,9.23,106.30943451269786,1.9773447987737445,317.4868683012557
A-1961,[(1E)-2-(diethoxymethyl)hept-1-en-1-yl]benzene,"InChI=1S/C18H28O2/c1-4-7-9-14-17(18(19-5-2)20-6-3)15-16-12-10-8-11-13-16/h8,10-13,15,18H,4-7,9,14H2,1-3H3/b17-15+",MPKOLWUWOADQCX-BMRADRMJSA-N,CCCCC\C(=C/c1ccccc1)C(OCC)OCC,-5.1720565184,0.0,1,G1,276.42,5.049400000000005,85.60100000000007,20.0,2.0,0.0,2.0,10.0,112.0,1.0,0.0,0.0,1.0,18.46,123.34819591908575,2.837712550013319,364.2644290425717
A-1963,dilanthanum(3+) ion tricarbonate,"InChI=1S/3CH2O3.2La/c3*2-1(3)4;;/h3*(H2,2,3,4);;/q;;;2*+3/p-6",NZPIUJUFIFZSPW-UHFFFAOYSA-H,[La+3].[La+3].[O-]C([O-])=O.[O-]C([O-])=O.[O-]C([O-])=O,-5.3958921156,0.0822236389500004,2,G3,457.8360000000003,-7.341000000000001,16.188,14.0,9.0,0.0,11.0,0.0,72.0,0.0,0.0,0.0,0.0,189.57,132.9381735056008,-2.699999991e-08,115.6067314326046
A-1967,"N,N'-(3,3'-dimethylbiphenyl-4,4'-diyl)bis(3-oxobutanamide)","InChI=1S/C22H24N2O4/c1-13-9-17(5-7-19(13)23-21(27)11-15(3)25)18-6-8-20(14(2)10-18)24-22(28)12-16(4)26/h5-10H,11-12H2,1-4H3,(H,23,27)(H,24,28)",CRRLDLPBQWRVGN-UHFFFAOYSA-N,CC(=O)CC(=O)Nc1ccc(cc1C)c2ccc(NC(=O)CC(C)=O)c(C)c2,-5.3250182341,0.0,1,G1,380.4440000000002,3.805640000000002,109.20740000000005,28.0,4.0,2.0,6.0,7.0,146.0,2.0,0.0,0.0,2.0,92.34,163.88373123691827,2.167824804173692,870.0480937199308
A-1968,N-(4-acetamidophenyl)-3-hydroxy-2-naphthamide,"InChI=1S/C19H16N2O3/c1-12(22)20-15-6-8-16(9-7-15)21-19(24)17-10-13-4-2-3-5-14(13)11-18(17)23/h2-11,23H,1H3,(H,20,22)(H,21,24)",MSRUOXBBGPWHEG-UHFFFAOYSA-N,CC(=O)Nc1ccc(NC(=O)c2cc3ccccc3cc2O)cc1,-5.2503495118,0.0,1,G1,320.348,3.7561000000000018,94.31170000000002,24.0,3.0,3.0,5.0,3.0,120.0,3.0,0.0,0.0,3.0,78.43,138.48199051998566,1.8163754134937584,917.5481477224685
A-1969,N-(5-chloro-2-methylphenyl)-3-hydroxynaphthalene-2-carboxamide,"InChI=1S/C18H14ClNO2/c1-11-6-7-14(19)10-16(11)20-18(22)15-8-12-4-2-3-5-13(12)9-17(15)21/h2-10,21H,1H3,(H,20,22)",XZOACPDZZYNJER-UHFFFAOYSA-N,Cc1ccc(Cl)cc1NC(=O)c2cc3ccccc3cc2O,-5.2385590319,0.0,1,G1,311.7680000000001,4.759520000000003,89.75500000000002,22.0,2.0,2.0,4.0,2.0,110.0,3.0,0.0,0.0,3.0,49.33,132.7089303488189,1.9799228725999738,874.0901967801403
A-1970,neodymium(3+) ion trihydroxide,InChI=1S/Nd.3H2O/h;3*1H2/q+3;;;/p-3,ZBAQHMBLDSQPHC-UHFFFAOYSA-K,[OH-].[OH-].[OH-].[Nd+3],-5.0353430041000005,0.0,1,G1,195.26100000000002,-0.5303999999999999,5.8074,4.0,3.0,0.0,4.0,0.0,25.0,0.0,0.0,0.0,0.0,90.0,56.84024526198126,-0.0,3.2451124978365313
A-1973,"(1,3-benzothiazol-2-ylsulfanyl)(tert-butyl)amine","InChI=1S/C11H14N2S2/c1-11(2,3)13-15-10-12-8-6-4-5-7-9(8)14-10/h4-7,13H,1-3H3",IUJLOAKJZQBENM-UHFFFAOYSA-N,CC(C)(C)NSc1sc2ccccc2n1,-5.136722389,0.1202746241499999,2,G3,238.38100000000003,3.6915000000000022,68.36570000000003,15.0,4.0,1.0,4.0,2.0,80.0,2.0,0.0,0.0,2.0,24.92,98.24119707977839,2.1562689700611974,423.80101539281736
A-1974,hydrogen telluride,InChI=1S/Te,PORWMNRCUJJQNO-UHFFFAOYSA-N,[Te],-4.875401753,0.0,1,G1,127.6,-0.3808,5.754,1.0,0.0,0.0,1.0,0.0,6.0,0.0,0.0,0.0,0.0,0.0,24.21910350452877,0.0,0.0
A-1978,"3,7-dimethyloct-6-en-1-yl butyrate","InChI=1S/C14H26O2/c1-5-7-14(15)16-11-10-13(4)9-6-8-12(2)3/h8,13H,5-7,9-11H2,1-4H3",XQPZQXTWYZAXAK-UHFFFAOYSA-N,CCCC(=O)OCCC(C)CCC=C(C)C,-5.142612080899999,0.0,1,G1,226.35999999999996,4.102300000000004,68.31300000000005,16.0,2.0,0.0,2.0,8.0,94.0,0.0,0.0,0.0,0.0,26.3,100.06896281235184,3.466508956517113,214.77523112580906
A-1981,3-hydroxy-N-(4-methoxyphenyl)-2-naphthamide,"InChI=1S/C18H15NO3/c1-22-15-8-6-14(7-9-15)19-18(21)16-10-12-4-2-3-5-13(12)11-17(16)20/h2-11,20H,1H3,(H,19,21)",UIXFPIHXQQZAGX-UHFFFAOYSA-N,COc1ccc(NC(=O)c2cc3ccccc3cc2O)cc1,-5.2632246549,0.0,1,G1,293.322,3.806300000000002,86.56000000000003,22.0,3.0,2.0,4.0,3.0,110.0,3.0,0.0,0.0,3.0,58.56,127.51920935144415,1.8882040440388015,825.3599220892858
A-1982,4-{1-[4-(cyanooxy)phenyl]ethyl}phenyl cyanate,"InChI=1S/C16H12N2O2/c1-12(13-2-6-15(7-3-13)19-10-17)14-4-8-16(9-5-14)20-11-18/h2-9,12H,1H3",SIZDMAYTWUINIG-UHFFFAOYSA-N,CC(c1ccc(OC#N)cc1)c2ccc(OC#N)cc2,-5.2179508887,0.0,1,G1,264.284,3.5581600000000018,72.88300000000004,20.0,4.0,0.0,4.0,4.0,98.0,2.0,0.0,0.0,2.0,66.03999999999999,116.96051560509864,2.1582945131771196,589.3616072984779
A-1984,dichlorodioctylstannane,"InChI=1S/2C8H17.2ClH.Sn/c2*1-3-5-7-8-6-4-2;;;/h2*1,3-8H2,2H3;2*1H;/q;;;;+2/p-2",SBOSGIJGEHWBKV-UHFFFAOYSA-L,CCCCCCCC[Sn](Cl)(Cl)CCCCCCCC,-5.4150412012,0.0,1,G1,416.06500000000034,7.627200000000006,93.82600000000008,19.0,0.0,0.0,3.0,14.0,116.0,0.0,0.0,0.0,0.0,0.0,132.8741941919422,3.362354107958663,165.58774655092262
A-1985,didysprosium trioxide,InChI=1S/2Dy.3O/q2*+3;3*-2,GEZAXHSNIQTPMM-UHFFFAOYSA-N,[O--].[O--].[O--].[Dy+3].[Dy+3],-5.3675853562,0.0,1,G1,372.997,-0.3564,2.0595,5.0,0.0,0.0,5.0,0.0,38.0,0.0,0.0,0.0,0.0,85.5,90.86093538200886,-0.0,4.854752972273344
A-1986,dodecanal,"InChI=1S/C12H24O/c1-2-3-4-5-6-7-8-9-10-11-12-13/h12H,2-11H2,1H3",HFJRKMMYBMWEAD-UHFFFAOYSA-N,CCCCCCCCCCCC=O,-5.0614595476,0.0,1,G1,184.32299999999998,4.106200000000003,57.90800000000005,13.0,1.0,0.0,1.0,10.0,78.0,0.0,0.0,0.0,0.0,17.07,82.91513638623603,2.7919988397452453,99.29759899884874
A-1991,"2-ethyl-2-methyl-1,3-dihydroperimidine","InChI=1S/C14H16N2/c1-3-14(2)15-11-8-4-6-10-7-5-9-12(16-14)13(10)11/h4-9,15-16H,3H2,1-2H3",QOYINWMUFFDLBI-UHFFFAOYSA-N,CCC1(C)Nc2cccc3cccc(N1)c23,-3.2477605654,0.0,1,G1,212.296,3.8034000000000017,69.88940000000004,16.0,2.0,2.0,2.0,1.0,82.0,2.0,0.0,1.0,3.0,24.06,95.66672932250546,2.2753717913874882,504.6766806253728
A-1994,2-(2-{2-[(2-ethylhexanoyl)oxy]ethoxy}ethoxy)ethyl 2-ethylhexanoate,"InChI=1S/C22H42O6/c1-5-9-11-19(7-3)21(23)27-17-15-25-13-14-26-16-18-28-22(24)20(8-4)12-10-6-2/h19-20H,5-18H2,1-4H3",FRQDZJMEHSJOPU-UHFFFAOYSA-N,CCCCC(CC)C(=O)OCCOCCOCCOC(=O)C(CC)CCCC,-5.4201521344,0.05378232025000029,2,G3,402.57200000000023,4.538800000000004,110.16800000000009,28.0,6.0,0.0,6.0,19.0,166.0,0.0,0.0,0.0,0.0,71.06,171.18026054827345,3.5670471683942484,349.22326730711194
A-1995,"2-hydroxy-1-{1-[4-(2-hydroxy-2-methylpropanoyl)phenyl]-1,3,3-trimethyl-2,3-dihydro-1H-inden-5-yl}-2-methylpropan-1-one; 2-hydroxy-1-{3-[4-(2-hydroxy-2-methylpropanoyl)phenyl]-1,1,3-trimethyl-2,3-dihydro-1H-inden-5-yl}-2-methylpropan-1-one; 2-hydroxy-2-methyl-1-[4-(prop-1-en-2-yl)phenyl]propan-1-one","InChI=1S/2C26H32O4.C13H16O2/c1-23(2)15-26(7,18-11-8-16(9-12-18)21(27)24(3,4)29)19-13-10-17(14-20(19)23)22(28)25(5,6)30;1-23(2)15-26(7,18-11-8-16(9-12-18)21(27)24(3,4)29)20-14-17(10-13-19(20)23)22(28)25(5,6)30;1-9(2)10-5-7-11(8-6-10)12(14)13(3,4)15/h2*8-14,29-30H,15H2,1-7H3;5-8,15H,1H2,2-4H3",UKDKXXBYNYCFSX-UHFFFAOYSA-N,CC(=C)c1ccc(cc1)C(=O)C(C)(C)O.CC(C)(O)C(=O)c2ccc(cc2)C3(C)CC(C)(C)c4cc(ccc34)C(=O)C(C)(C)O.CC(C)(O)C(=O)c5ccc(cc5)C6(C)CC(C)(C)c7ccc(cc67)C(=O)C(C)(C)O,-5.8273288791999995,0.14763883339999984,2,G3,1021.3449999999998,11.835499999999987,298.2534999999999,75.0,10.0,5.0,10.0,13.0,400.0,5.0,0.0,2.0,7.0,186.49999999999997,444.5219301766488,2.2017592036490595e-07,3007.615867390725
A-1997,"2-(1-amino-9,10-dioxo-9,10-dihydroanthracen-2-yl)-5H,10H-anthra[2,3-d][1,3]oxazole-5,10-dione","InChI=1S/C29H14N2O5/c30-24-18(10-9-17-23(24)28(35)16-8-4-3-7-15(16)25(17)32)29-31-21-11-19-20(12-22(21)36-29)27(34)14-6-2-1-5-13(14)26(19)33/h1-12H,30H2",RHEVAQGXLUQWBM-UHFFFAOYSA-N,Nc1c(ccc2C(=O)c3ccccc3C(=O)c12)c4oc5cc6C(=O)c7ccccc7C(=O)c6cc5n4,-5.4964129822,0.0,1,G1,470.4400000000002,4.627800000000002,130.4714,36.0,7.0,1.0,7.0,1.0,170.0,5.0,0.0,2.0,7.0,120.33,202.73241276216334,1.3854767929175256,1806.7098851437422
A-1998,N-(4-ethoxyphenyl)-3-hydroxy-2-naphthamide,"InChI=1S/C19H17NO3/c1-2-23-16-9-7-15(8-10-16)20-19(22)17-11-13-5-3-4-6-14(13)12-18(17)21/h3-12,21H,2H2,1H3,(H,20,22)",FYJKEJZGNQVNLC-UHFFFAOYSA-N,CCOc1ccc(NC(=O)c2cc3ccccc3cc2O)cc1,-5.311540545400001,0.0,1,G1,307.34900000000005,4.196400000000002,91.17700000000004,23.0,3.0,2.0,4.0,4.0,116.0,3.0,0.0,0.0,3.0,58.56,133.88415146584074,1.8355914386387557,840.8625818400062
A-1999,"N-(5-chloro-2,4-dimethoxyphenyl)-3-hydroxy-2-naphthamide","InChI=1S/C19H16ClNO4/c1-24-17-10-18(25-2)15(9-14(17)20)21-19(23)13-7-11-5-3-4-6-12(11)8-16(13)22/h3-10,22H,1-2H3,(H,21,23)",XDWATWCCUTYUDE-UHFFFAOYSA-N,COc1cc(OC)c(NC(=O)c2cc3ccccc3cc2O)cc1Cl,-5.3775405806,0.0,1,G1,357.793,4.468300000000003,98.12200000000003,25.0,4.0,2.0,6.0,4.0,128.0,3.0,0.0,0.0,3.0,67.79,149.3009629222293,1.9742074356788424,955.5521119106772
A-2000,Vat brown 3,"InChI=1S/C42H23N3O6/c46-37-24-14-7-8-15-25(24)38(47)34-33(37)30(44-42(51)22-12-5-2-6-13-22)20-28-23-18-19-27-32(35(23)45-36(28)34)40(49)26-16-9-17-29(31(26)39(27)48)43-41(50)21-10-3-1-4-11-21/h1-20,45H,(H,43,50)(H,44,51)",AAKMSGQPNUGLAZ-UHFFFAOYSA-N,O=C(Nc1cccc2C(=O)c3c4[nH]c5c(cc(NC(=O)c6ccccc6)c7C(=O)c8ccccc8C(=O)c57)c4ccc3C(=O)c12)c9ccccc9,-5.647161854,0.0,1,G1,665.6610000000003,6.754900000000005,202.07109999999975,51.0,6.0,3.0,9.0,4.0,242.0,9.0,0.0,0.0,9.0,142.26999999999998,285.64348033932237,1.3463121358514456,3199.457301800503
A-2001,1-(4-methoxyphenyl)-2-[(3-methoxyphenyl)sulfanyl]ethan-1-one,"InChI=1S/C16H16O3S/c1-18-13-8-6-12(7-9-13)16(17)11-20-15-5-3-4-14(10-15)19-2/h3-10H,11H2,1-2H3",CXSKVBXJDSVPKS-UHFFFAOYSA-N,COc1ccc(cc1)C(=O)CSc2cccc(OC)c2,-5.284725265,0.04898350654651921,4,G5,288.368,3.6788000000000025,81.04250000000005,20.0,4.0,0.0,4.0,6.0,104.0,2.0,0.0,0.0,2.0,35.53,122.45998836757019,1.9651932716462865,578.530785639665
A-2004,"Anthra[2,1,9-mna]naphtho[2,3-h]acridine-5,10,15(16H)-trione","InChI=1S/C31H15NO3/c33-29-19-6-2-1-5-15(19)16-13-14-24-26-17(9-11-22(29)25(16)26)18-10-12-23-27(28(18)32-24)31(35)21-8-4-3-7-20(21)30(23)34/h1-14,32H",HHKPGQSPFVLKMV-UHFFFAOYSA-N,O=C1c2ccccc2C(=O)c3c4Nc5ccc6c7ccccc7C(=O)c8ccc(c4ccc13)c5c68,-5.506567842999999,0.0,1,G1,449.4650000000002,6.043300000000003,144.51669999999984,35.0,3.0,1.0,4.0,0.0,162.0,8.0,0.0,0.0,8.0,67.0,195.88629400285674,1.6719050411948804,2385.6769924073888
A-2005,"2,2'-oxybis(5,5-dimethyl-1,3,2-dioxaphosphinane) 2,2'-disulfide","InChI=1S/C10H20O5P2S2/c1-9(2)5-11-16(18,12-6-9)15-17(19)13-7-10(3,4)8-14-17/h5-8H2,1-4H3",GAUFKBQSTGCCOC-UHFFFAOYSA-N,CC1(C)CO[P](=S)(OC1)O[P]2(=S)OCC(C)(C)CO2,-5.393383394500001,0.0,1,G1,346.34700000000015,3.5980000000000025,81.02500000000005,19.0,7.0,0.0,9.0,2.0,112.0,0.0,2.0,2.0,2.0,46.150000000000006,124.3396501043009,1.9803728758792238,383.2009657108006
A-2007,1-methyl-4-(propan-2-yl)cyclohex-1-ene,"InChI=1S/C10H18/c1-8(2)10-6-4-9(3)5-7-10/h4,8,10H,5-7H2,1-3H3",FAMJUFMHYAFYNU-UHFFFAOYSA-N,CC(C)C1CCC(=CC1)C,-5.0103439368,0.0,1,G1,138.254,3.3888000000000025,45.93600000000002,10.0,0.0,0.0,0.0,1.0,58.0,0.0,0.0,1.0,1.0,0.0,64.32829587168553,2.418109175616248,130.97373660251156
A-2008,"6-({bis[(5-carboxypentyl)amino]-1,3,5-triazin-2-yl}amino)hexanoic acid","InChI=1S/C21H36N6O6/c28-16(29)10-4-1-7-13-22-19-25-20(23-14-8-2-5-11-17(30)31)27-21(26-19)24-15-9-3-6-12-18(32)33/h1-15H2,(H,28,29)(H,30,31)(H,32,33)(H3,22,23,24,25,26,27)",BKKWPPMEXIXECW-UHFFFAOYSA-N,OC(=O)CCCCCNc1nc(NCCCCCC(O)=O)nc(NCCCCCC(O)=O)n1,-2.5423613079,1.8734772429590494,4,G4,468.5550000000003,3.0423,123.60750000000009,33.0,9.0,6.0,12.0,21.0,186.0,1.0,0.0,0.0,1.0,186.65999999999997,193.1761592290189,2.5054320900765363,625.6602216685291
A-2009,2-methyloctyl prop-2-enoate,"InChI=1S/C13H24O2/c1-4-13(14)15-11-9-7-5-6-8-10-12(2)3/h4,12H,1,5-11H2,2-3H3",LVGFPWDANALGOY-UHFFFAOYSA-N,CC(C)CCCCCCCOC(=O)C=C,-5.1999126975,0.0,1,G1,212.33299999999997,3.712200000000003,63.69600000000005,15.0,2.0,0.0,2.0,9.0,88.0,0.0,0.0,0.0,0.0,26.3,93.70402069795527,3.0490128685991014,173.3747663937881
A-2011,2-methylundecanal,"InChI=1S/C12H24O/c1-3-4-5-6-7-8-9-10-12(2)11-13/h11-12H,3-10H2,1-2H3",NFAVNWJJYQAGNB-UHFFFAOYSA-N,CCCCCCCCCC(C)C=O,-5.151636178,0.0,1,G1,184.323,3.962100000000003,57.83800000000005,13.0,1.0,0.0,1.0,9.0,78.0,0.0,0.0,0.0,0.0,17.07,82.91513638623601,2.948167887963237,109.69210414479323
A-2012,"4-{bis[4-(dimethylamino)phenyl]methyl}-N,N-dimethylaniline","InChI=1S/C25H31N3/c1-26(2)22-13-7-19(8-14-22)25(20-9-15-23(16-10-20)27(3)4)21-11-17-24(18-12-21)28(5)6/h7-18,25H,1-6H3",OAZWDJGLIYNYMU-UHFFFAOYSA-N,CN(C)c1ccc(cc1)C(c2ccc(cc2)N(C)C)c3ccc(cc3)N(C)C,-5.458398412699999,0.0,1,G1,373.5440000000001,5.064800000000004,123.25200000000007,28.0,3.0,0.0,3.0,6.0,146.0,3.0,0.0,0.0,3.0,9.72,169.37968734301143,2.0443525259677444,754.1475457503358
A-2013,digadolinium(3+) ion trioxalate,"InChI=1S/3C2H2O4.2Gd/c3*3-1(4)2(5)6;;/h3*(H,3,4)(H,5,6);;/q;;;2*+3/p-6",SQORATIMOBOFKR-UHFFFAOYSA-H,[Gd+3].[Gd+3].[O-]C(=O)C([O-])=O.[O-]C(=O)C([O-])=O.[O-]C(=O)C([O-])=O,-5.648400548200001,0.3302053143352448,6,G5,578.5540000000003,-10.5414,30.041999999999994,20.0,12.0,0.0,14.0,0.0,112.0,0.0,0.0,0.0,0.0,240.77999999999997,172.6811203229811,-5.3571428295918366e-08,281.0851869626513
A-2015,yttrium,InChI=1S/Y,VWQVUPCCIRVNHF-UHFFFAOYSA-N,[Y],-4.8349877189,0.0,1,G1,88.906,-0.0025,0.0,1.0,0.0,0.0,1.0,0.0,3.0,0.0,0.0,0.0,0.0,0.0,32.752140139249285,0.0,0.0
A-2016,"1,8-bis(phenylsulfanyl)-9,10-dihydroanthracene-9,10-dione",InChI=1S/C26H16O2S2/c27-25-19-13-7-15-21(29-17-9-3-1-4-10-17)23(19)26(28)24-20(25)14-8-16-22(24)30-18-11-5-2-6-12-18/h1-16H,CNRPDCKHCGUKDK-UHFFFAOYSA-N,O=C1c2cccc(Sc3ccccc3)c2C(=O)c4c(Sc5ccccc5)cccc14,-5.517335043099999,0.0,1,G1,424.5460000000001,6.764400000000005,120.87899999999999,30.0,4.0,0.0,4.0,4.0,144.0,4.0,0.0,1.0,5.0,34.14,182.89600306377102,1.621491385053882,1167.9742921107668
A-2017,"praseodymium(III,IV) oxide",InChI=1S/11O.6Pr/q11*-2;6*+3,HPZIIFVSYNLWNX-UHFFFAOYSA-N,[O--].[O--].[O--].[O--].[O--].[O--].[O--].[O--].[O--].[O--].[O--].[Pr+3].[Pr+3].[Pr+3].[Pr+3].[Pr+3].[Pr+3],-5.905407864500001,0.0,1,G1,1021.437,-1.3068,7.551499999999998,17.0,0.0,0.0,17.0,0.0,88.0,0.0,0.0,0.0,0.0,313.5,298.3866418310342,-0.0,15.923345491918562
A-2019,"4,4'-cyclohexane-1,1-diylbis(2-methylphenol)","InChI=1S/C20H24O2/c1-14-12-16(6-8-18(14)21)20(10-4-3-5-11-20)17-7-9-19(22)15(2)13-17/h6-9,12-13,21-22H,3-5,10-11H2,1-2H3",SVOBELCYOCEECO-UHFFFAOYSA-N,Cc1cc(ccc1O)C2(CCCCC2)c3ccc(O)c(C)c3,-5.3715223063,0.0,1,G1,296.40999999999997,4.964840000000005,89.55260000000004,22.0,2.0,2.0,2.0,2.0,116.0,2.0,1.0,1.0,3.0,40.46,131.99067059159665,2.1480165624160334,628.6017541173309
A-2022,calcium 3-hydroxy-4-[(E)-2-(4-methyl-2-sulfonatophenyl)diazen-1-yl]naphthalene-2-carboxylate,"InChI=1S/C18H14N2O6S.Ca/c1-10-6-7-14(15(8-10)27(24,25)26)19-20-16-12-5-3-2-4-11(12)9-13(17(16)21)18(22)23;/h2-9,19H,1H3,(H,22,23)(H,24,25,26);/q;+2/p-2/b20-16-;",WANIKCLUTOABTP-LRZQPWDCSA-L,[Ca++].Cc1ccc(N\N=C\2C(=O)C(=Cc3ccccc23)C([O-])=O)c(c1)[S]([O-])(=O)=O,-5.5486422223,0.19010562084999982,2,G3,424.4470000000002,0.0505199999999999,99.48890000000002,28.0,8.0,1.0,10.0,4.0,138.0,2.0,0.0,1.0,3.0,138.79,190.2597184734787,2.8033304522669224e-06,1138.5148745463796