ID,Name,InChI,InChIKey,SMILES,Solubility,SD,Ocurrences,Group,MolWt,MolLogP,MolMR,HeavyAtomCount,NumHAcceptors,NumHDonors,NumHeteroatoms,NumRotatableBonds,NumValenceElectrons,NumAromaticRings,NumSaturatedRings,NumAliphaticRings,RingCount,TPSA,LabuteASA,BalabanJ,BertzCT
A-3409,1-phenylethan-1-one; 2-phenylpropan-2-ol; phenol,"InChI=1S/C9H12O.C8H8O.C6H6O/c1-9(2,10)8-6-4-3-5-7-8;1-7(9)8-5-3-2-4-6-8;7-6-4-2-1-3-5-6/h3-7,10H,1-2H3;2-6H,1H3;1-5,7H",UJAOROLGXQHBAO-UHFFFAOYSA-N,CC(=O)c1ccccc1.CC(C)(O)c2ccccc2.Oc3ccccc3,-1.7593061432,0.0,1,G1,350.458,5.1954000000000065,106.24010000000003,26.0,3.0,2.0,3.0,2.0,136.0,3.0,0.0,0.0,3.0,57.53,155.1319540151023,1.9796826460488237e-07,745.7210729666547
A-3410,"disodium 1-amino-4-(4-amino-9,10-dioxo-3-sulfonato-9,10-dihydroanthracen-1-yl)-9,10-dioxo-9,10-dihydroanthracene-2-sulfonate","InChI=1S/C28H16N2O10S2.2Na/c29-23-17(41(35,36)37)9-15(19-21(23)27(33)13-7-3-1-5-11(13)25(19)31)16-10-18(42(38,39)40)24(30)22-20(16)26(32)12-6-2-4-8-14(12)28(22)34;;/h1-10H,29-30H2,(H,35,36,37)(H,38,39,40);;/q;2*+1/p-2",OKHQKAVALRCESS-UHFFFAOYSA-L,[Na+].[Na+].Nc1c2C(=O)c3ccccc3C(=O)c2c(cc1[S]([O-])(=O)=O)c4cc(c(N)c5C(=O)c6ccccc6C(=O)c45)[S]([O-])(=O)=O,-2.0301800533,0.0,1,G1,648.5380000000004,-4.114999999999994,143.24319999999992,44.0,12.0,2.0,16.0,3.0,210.0,4.0,0.0,2.0,6.0,234.71999999999997,293.46073294792274,2.208998047386783e-06,2089.8775146193157
A-3411,1-ethylpiperidine,"InChI=1S/C7H15N/c1-2-8-6-4-3-5-7-8/h2-7H2,1H3",HTLZVHNRZJPSMI-UHFFFAOYSA-N,CCN1CCCCC1,-1.2757105223,0.0,1,G1,113.20400000000001,1.4922,35.96499999999999,8.0,1.0,0.0,1.0,1.0,48.0,0.0,1.0,1.0,1.0,3.24,51.68290623088334,2.1250162554146717,55.407165571558394
A-3412,2-amino-5-methylbenzene-1-sulfonic acid,"InChI=1S/C7H9NO3S/c1-5-2-3-6(8)7(4-5)12(9,10)11/h2-4H,8H2,1H3,(H,9,10,11)",LTPSRQRIPCVMKQ-UHFFFAOYSA-N,Cc1ccc(N)c(c1)[S](O)(=O)=O,-1.4942009905000002,0.037899504749999924,2,G3,187.22,0.82392,45.40600000000001,12.0,3.0,2.0,5.0,1.0,66.0,1.0,0.0,0.0,1.0,80.39,70.7648719409469,3.4344939089006497,397.1125573446092
A-3414,"bis(2-phenyl-4,5-dihydro-1H-imidazole); benzene-1,2,4,5-tetracarboxylic acid","InChI=1S/C10H6O8.2C9H10N2/c11-7(12)3-1-4(8(13)14)6(10(17)18)2-5(3)9(15)16;2*1-2-4-8(5-3-1)9-10-6-7-11-9/h1-2H,(H,11,12)(H,13,14)(H,15,16)(H,17,18);2*1-5H,6-7H2,(H,10,11)",XSMMIZPIWZYHNL-UHFFFAOYSA-N,OC(=O)c1cc(C(O)=O)c(cc1C(O)=O)C(O)=O.C2CN=C(N2)c3ccccc3.C4CN=C(N4)c5ccccc5,-1.9594675236,0.0,1,G1,546.5360000000003,2.5522,145.97659999999982,40.0,8.0,6.0,12.0,6.0,206.0,3.0,0.0,2.0,5.0,197.98,227.9084054234865,1.7280564021500236e-07,1296.141091029081
A-3416,imidazolidin-2-one,"InChI=1S/C3H6N2O/c6-3-4-1-2-5-3/h1-2H2,(H2,4,5,6)",YAMHXTCMCPHKLN-UHFFFAOYSA-N,O=C1NCCN1,0.8402733738,0.10945867350502846,3,G5,86.09400000000001,-0.7008000000000001,21.401399999999995,6.0,1.0,2.0,3.0,0.0,34.0,0.0,1.0,1.0,1.0,41.13,35.72455057035339,2.3673518510178746,63.19344939991072
A-3418,iron(+3) cation; oxygen(-2) anion,InChI=1S/2Fe.3O/q2*+3;3*-2,LIKBJVNGSGBSGK-UHFFFAOYSA-N,[O--].[O--].[O--].[Fe+3].[Fe+3],-3.7261483073000004,0.0,1,G1,159.687,-0.3614,2.0595,5.0,0.0,0.0,5.0,0.0,34.0,0.0,0.0,0.0,0.0,85.5,51.00197858958836,-0.0,4.854752972273344
A-3420,bis(hydroxyazanium) sulfate,"InChI=1S/2H4NO.H2O4S/c2*1-2;1-5(2,3)4/h2*2H,1H3;(H2,1,2,3,4)/q2*+1;/p-2",VGYYSIDKAKXZEE-UHFFFAOYSA-L,[NH3+]O.[NH3+]O.[O-][S]([O-])(=O)=O,0.553426318,0.0,1,G1,164.13899999999998,-4.103,19.823800000000006,9.0,6.0,4.0,9.0,0.0,60.0,0.0,0.0,0.0,0.0,176.0,51.19417075615947,-7.714285649961735e-08,94.22626787690945
A-3421,dichlorocobalt,InChI=1S/2ClH.Co/h2*1H;/q;;+2/p-2,GVPFVAHMJGGAJG-UHFFFAOYSA-L,[Cl-].[Cl-].[Co++],0.654418336,0.0,1,G1,129.839,-5.9945,0.0,3.0,0.0,0.0,3.0,0.0,23.0,0.0,0.0,0.0,0.0,0.0,41.99469774646511,-0.0,2.7548875021634682
A-3423,potassium pentahydrogen diphosphate,"InChI=1S/K.H3O4P/c;1-5(2,3)4/h;(H3,1,2,3,4)/q+1;",GNSKLFRGEWLPPA-UHFFFAOYSA-N,[K+].O[P](O)(O)=O,0.6286564425,0.0,1,G1,137.09199999999998,-3.9246,14.2629,6.0,1.0,3.0,6.0,0.0,32.0,0.0,0.0,0.0,0.0,77.75999999999999,77.22918553985866,0.0,53.68367439558379
A-3430,potassium (2S)-4-carboxy-2-tetradecanamidobutanoate,"InChI=1S/C19H35NO5.K/c1-2-3-4-5-6-7-8-9-10-11-12-13-17(21)20-16(19(24)25)14-15-18(22)23;/h16H,2-15H2,1H3,(H,20,21)(H,22,23)(H,24,25);/q;+1/p-1/t16-;/m0./s1",KYLDDUZJZSKJER-NTISSMGPSA-M,[K+].CCCCCCCCCCCCCC(=O)N[C@@H](CCC(O)=O)C([O-])=O,-0.8308225768999999,0.0,1,G1,395.5810000000001,-0.2089999999999968,94.88550000000006,26.0,4.0,2.0,7.0,17.0,146.0,0.0,0.0,0.0,0.0,106.53,199.85366977046243,0.0,390.12576954565
A-3432,"1,3-bis(acetyloxy)propan-2-yl acetate","InChI=1S/C9H14O6/c1-6(10)13-4-9(15-8(3)12)5-14-7(2)11/h9H,4-5H2,1-3H3",URAYPUMNDPQOKB-UHFFFAOYSA-N,CC(=O)OCC(COC(C)=O)OC(C)=O,-0.5754367043,0.04541032059438008,3,G5,218.20499999999998,0.044299999999999784,48.82000000000003,15.0,6.0,0.0,6.0,5.0,86.0,0.0,0.0,0.0,0.0,78.9,87.48398993165436,3.9922055468289943,228.98712426015686
A-3433,"2,2-dimethyloxirane","InChI=1S/C4H8O/c1-4(2)3-5-4/h3H2,1-2H3",GELKGHVAFRCJNA-UHFFFAOYSA-N,CC1(C)CO1,-0.0945494336,0.0,1,G1,72.107,0.7952,20.030999999999995,5.0,1.0,0.0,1.0,0.0,30.0,0.0,1.0,1.0,1.0,12.53,31.941791446997023,2.3821985753493924,41.60964047443681
A-3434,hexyl D-glucoside,"InChI=1S/C12H24O6/c1-2-3-4-5-6-17-12-11(16)10(15)9(14)8(7-13)18-12/h8-16H,2-7H2,1H3/t8-,9-,10+,11-,12?/m1/s1",JVAZJLFFSJARQM-OZRWLHRGSA-N,CCCCCCOC1O[C@H](CO)[C@@H](O)[C@H](O)[C@H]1O,-0.6586987459,0.0,1,G1,264.318,-0.6168000000000002,63.86120000000006,18.0,6.0,4.0,6.0,7.0,108.0,0.0,1.0,1.0,1.0,99.38000000000001,107.15180860046081,2.3456494022350434,222.61317499160342
A-3435,"2-hydroxypropane-1,2,3-tricarboxylic acid","InChI=1S/C6H8O7/c7-3(8)1-6(13,5(11)12)2-4(9)10/h13H,1-2H2,(H,7,8)(H,9,10)(H,11,12)",KRKNYBCHXYNGOX-UHFFFAOYSA-N,OC(=O)CC(O)(CC(O)=O)C(O)=O,0.4768431239,0.08186450474636753,5,G5,192.123,-1.2485,37.09119999999999,13.0,4.0,4.0,7.0,5.0,74.0,0.0,0.0,0.0,0.0,132.13000000000002,72.22546290872793,4.619312134964085,227.36732222044088
A-3437,"1H-1,2,4-triazol-3-amine","InChI=1S/C2H4N4/c3-2-4-1-5-6-2/h1H,(H3,3,4,5,6)",KLSJWNVTNUYHDU-UHFFFAOYSA-N,Nc1[nH]ncn1,0.8326929954000001,0.29113542811443954,4,G5,84.082,-0.6131000000000004,20.795100000000005,6.0,3.0,2.0,4.0,0.0,32.0,1.0,0.0,0.0,1.0,67.59,34.388203767821736,3.049648321313926,109.10850553448522
A-3438,"tris(2-hydroxyethyl)-1,3,5-triazinane-2,4,6-trione","InChI=1S/C9H15N3O6/c13-4-1-10-7(16)11(2-5-14)9(18)12(3-6-15)8(10)17/h13-15H,1-6H2",BPXVHIRIPLPOPT-UHFFFAOYSA-N,OCCN1C(=O)N(CCO)C(=O)N(CCO)C1=O,0.34036632840000003,0.1516509058,2,G3,261.234,-3.851399999999997,60.47940000000002,18.0,9.0,3.0,9.0,6.0,102.0,1.0,0.0,0.0,1.0,126.69000000000003,100.77718176522147,3.5911305736027184,457.8646125297857
A-3439,"sodium dihydrogen 2-hydroxypropane-1,2,3-tricarboxylate","InChI=1S/C6H8O7.Na/c7-3(8)1-6(13,5(11)12)2-4(9)10;/h13H,1-2H2,(H,7,8)(H,9,10)(H,11,12);/q;+1/p-1",HWPKGOGLCKPRLZ-UHFFFAOYSA-M,[Na+].OC(=O)CC(O)(CC(O)=O)C([O-])=O,0.42524804619999995,0.3127705436,2,G3,214.10499999999996,-5.579199999999998,34.462399999999995,14.0,5.0,3.0,8.0,5.0,74.0,0.0,0.0,0.0,0.0,134.96,100.63886253143991,0.0,232.56457479341313
A-3441,"disodium 1-amino-4-[[4-[(2-bromo-1-oxoallyl)amino]-2-sulphonatophenyl]amino]-9,10-dihydro-9,10-dioxoanthracene-2-sulphonate","InChI=1S/C23H16BrN3O9S2.2Na/c1-10(24)23(30)26-11-6-7-14(16(8-11)37(31,32)33)27-15-9-17(38(34,35)36)20(25)19-18(15)21(28)12-4-2-3-5-13(12)22(19)29;;/h2-9,27H,1,25H2,(H,26,30)(H,31,32,33)(H,34,35,36);;/q;2*+1/p-2",BCENAVMKNRCXMQ-UHFFFAOYSA-L,[Na+].[Na+].Nc1c2C(=O)c3ccccc3C(=O)c2c(Nc4ccc(NC(=O)C(Br)=C)cc4[S]([O-])(=O)=O)cc1[S]([O-])(=O)=O,-1.0618038915,0.0,1,G1,666.3950000000002,-3.5488999999999944,136.50919999999996,40.0,11.0,3.0,17.0,6.0,196.0,3.0,0.0,1.0,4.0,215.68999999999997,280.5506681534012,2.8016641783106337e-06,1829.1264459464426
A-3442,"disodium 4,4'-bis[[4-anilino-6-[(2-carbamoylethyl)(2-hydroxyethyl)amino]-1,3,5,-triazin-2-yl]amino]stilbene-2,2'-disulphonate","InChI=1S/C42H46N14O10S2.2Na/c43-35(59)17-19-55(21-23-57)41-51-37(45-29-7-3-1-4-8-29)49-39(53-41)47-31-15-13-27(33(25-31)67(61,62)63)11-12-28-14-16-32(26-34(28)68(64,65)66)48-40-50-38(46-30-9-5-2-6-10-30)52-42(54-40)56(22-24-58)20-18-36(44)60;;/h1-16,25-26,57-58H,17-24H2,(H2,43,59)(H2,44,60)(H,61,62,63)(H,64,65,66)(H2,45,47,49,51,53)(H2,46,48,50,52,54);;/q;2*+1/p-2/b12-11+;;",KXZDXBWYWMOFCR-YHPRVSEPSA-L,[Na+].[Na+].NC(=O)CCN(CCO)c1nc(Nc2ccccc2)nc(Nc3ccc(\C=C\c4ccc(Nc5nc(Nc6ccccc6)nc(n5)N(CCO)CCC(N)=O)cc4[S]([O-])(=O)=O)c(c3)[S]([O-])(=O)=O)n1,-1.2475609958,0.0,1,G1,1015.0159999999996,-3.634199999999991,249.62759999999963,70.0,22.0,8.0,28.0,24.0,356.0,6.0,0.0,0.0,6.0,372.97999999999996,446.11894481492004,5.32898390099562e-06,2803.6392051616785
A-3444,xylose,"InChI=1S/C5H10O5/c6-2-1-10-5(9)4(8)3(2)7/h2-9H,1H2",SRBFZHDQGSBBOR-UHFFFAOYSA-N,OC1COC(O)C(O)C1O,0.5778808511,0.14073526663815034,5,G5,150.13,-2.5823000000000005,29.979199999999988,10.0,5.0,4.0,5.0,0.0,60.0,0.0,1.0,1.0,1.0,90.15,57.48366857017767,2.515835979311492,102.6059378176129
A-3445,"2,4-dihydroxy-N-(3-hydroxypropyl)-3,3-dimethylbutanamide","InChI=1S/C9H19NO4/c1-9(2,6-12)7(13)8(14)10-4-3-5-11/h7,11-13H,3-6H2,1-2H3,(H,10,14)",SNPLKNRPJHDVJA-UHFFFAOYSA-N,CC(C)(CO)C(O)C(=O)NCCCO,0.43767645409999995,0.0,1,G1,205.25399999999996,-1.1355999999999997,51.58610000000003,14.0,4.0,4.0,5.0,6.0,84.0,0.0,0.0,0.0,0.0,89.79,83.75287348324227,3.9888789246223633,181.65076769132014
A-3446,"(2R,3R)-2,3-dihydroxybutanedioic acid","InChI=1S/C4H6O6/c5-1(3(7)8)2(6)4(9)10/h1-2,5-6H,(H,7,8)(H,9,10)",FEWJPZIEWOKRBE-UHFFFAOYSA-N,OC(C(O)C(O)=O)C(O)=O,0.5718478438,0.6828326824619204,10,G4,150.08599999999998,-2.1226,27.285199999999996,10.0,4.0,4.0,6.0,3.0,58.0,0.0,0.0,0.0,0.0,115.06,55.33405657989094,4.069511908932011,133.82680599646994
A-3447,[(bis{6-[bis(phosphonomethyl)amino]hexyl}amino)methyl]phosphonic acid,"InChI=1S/C17H44N3O15P5/c21-36(22,23)13-18(9-5-1-3-7-11-19(14-37(24,25)26)15-38(27,28)29)10-6-2-4-8-12-20(16-39(30,31)32)17-40(33,34)35/h1-17H2,(H2,21,22,23)(H2,24,25,26)(H2,27,28,29)(H2,30,31,32)(H2,33,34,35)",YWMWZKYVGNWJPU-UHFFFAOYSA-N,O[P](O)(=O)CN(CCCCCCN(C[P](O)(O)=O)C[P](O)(O)=O)CCCCCCN(C[P](O)(O)=O)C[P](O)(O)=O,-0.0877655775,0.0,1,G1,685.4150000000006,0.6891999999999994,146.47649999999993,40.0,8.0,10.0,23.0,24.0,242.0,0.0,0.0,0.0,0.0,297.37,233.1148654724848,4.520195677576641,846.1073506269357
A-3448,potassium hydrogen tartarate,"InChI=1S/C4H6O6.K/c5-1(3(7)8)2(6)4(9)10;/h1-2,5-6H,(H,7,8)(H,9,10);/q;+1/p-1/t1-,2-;/m1./s1",KYKNRZGSIGMXFH-ZVGUSBNCSA-M,[K+].O[C@H]([C@@H](O)C([O-])=O)C(O)=O,0.47362379439999996,0.753304129189195,8,G4,188.17599999999996,-6.453299999999998,24.656399999999994,11.0,5.0,3.0,7.0,3.0,58.0,0.0,0.0,0.0,0.0,117.89000000000001,104.25662127525356,0.0,138.66127285260657
A-3452,dimethyl 2-acetylsuccinate,"InChI=1S/C8H12O5/c1-5(9)6(8(11)13-3)4-7(10)12-2/h6H,4H2,1-3H3",XREKLQOUFWBSFH-UHFFFAOYSA-N,COC(=O)CC(C(C)=O)C(=O)OC,-0.5248348408,0.0,1,G1,188.17899999999997,-0.07230000000000025,42.820000000000014,13.0,5.0,0.0,5.0,4.0,74.0,0.0,0.0,0.0,0.0,69.67,76.00550258775085,4.351205679620966,220.5742758960129
A-3453,palladium(2+) ion tetraamine dihydrogen carbonate,"InChI=1S/2CH2O3.4H3N.Pd/c2*2-1(3)4;;;;;/h2*(H2,2,3,4);4*1H3;/q;;;;;;+2/p-2",QYYPTZGPXKUKRM-UHFFFAOYSA-L,N.N.N.N.[Pd++].OC([O-])=O.OC([O-])=O,-0.7223996879000001,0.0,1,G1,296.576,-1.5791000000000004,36.13800000000001,13.0,8.0,6.0,11.0,0.0,88.0,0.0,0.0,0.0,0.0,260.71999999999997,87.93227124548496,-7.999999970370371e-09,80.63504134881501
A-3459,2-{[4-(oxiran-2-ylmethoxy)butoxy]methyl}oxirane,"InChI=1S/C10H18O4/c1(3-11-5-9-7-13-9)2-4-12-6-10-8-14-10/h9-10H,1-8H2",SHKUUQIDMUMQQK-UHFFFAOYSA-N,C(CCOCC1CO1)COCC2CO2,-0.5608137387,0.0,1,G1,202.24999999999994,0.5973999999999999,50.35200000000005,14.0,4.0,0.0,4.0,9.0,82.0,0.0,2.0,2.0,2.0,43.519999999999996,84.46624866836808,1.2537346469992094,136.20098801185608
A-3460,palladium(2+) dichloride,InChI=1S/2ClH.Pd/h2*1H;/q;;+2/p-2,PIBWKRNGBLPSSY-UHFFFAOYSA-L,[Cl-].[Cl-].[Pd++],-0.5036976261,0.5698848727000001,2,G2,177.32600000000002,-5.9945,0.0,3.0,0.0,0.0,3.0,0.0,24.0,0.0,0.0,0.0,0.0,0.0,45.453930550074055,-0.0,2.7548875021634682
A-3461,sodium hydrogensulphide,InChI=1S/Na.H2S/h;1H2/q+1;/p-1,HYHCSLBZRBJJCH-UHFFFAOYSA-M,[Na+].[SH-],0.990088732,0.0,1,G1,56.065000000000005,-3.2661000000000002,8.76,2.0,1.0,0.0,2.0,0.0,8.0,0.0,0.0,0.0,0.0,0.0,42.97473183758309,0.0,2.0
A-3462,beta-alanine,"InChI=1S/C3H7NO2/c4-2-1-3(5)6/h1-2,4H2,(H,5,6)",UCMIRNVEIXFBKS-UHFFFAOYSA-N,NCCC(O)=O,0.7865480445999999,0.0,1,G1,89.09399999999998,-0.5802,21.307199999999995,6.0,2.0,2.0,3.0,2.0,36.0,0.0,0.0,0.0,0.0,63.32,35.76478180587526,2.831257109931365,52.75488750216347
A-3463,"6-methoxy-2-N-methylpyridine-2,3-diamine dihydrochloride","InChI=1S/C7H11N3O.2ClH/c1-9-7-5(8)3-4-6(10-7)11-2;;/h3-4H,8H2,1-2H3,(H,9,10);2*1H",GYLCRBBRGGGHBS-UHFFFAOYSA-N,[H+].[H+].[Cl-].[Cl-].CNc1nc(OC)ccc1N,0.3819230911,0.0,1,G1,226.10699999999997,-5.0528999999999975,46.97210000000001,13.0,4.0,2.0,6.0,2.0,76.0,1.0,0.0,0.0,1.0,60.17,92.66001668345424,-1.512499921338546e-07,265.9906550974382
A-3464,2-(sec-butylamino)ethanol,"InChI=1S/C6H15NO/c1-3-6(2)7-4-5-8/h6-8H,3-5H2,1-2H3",YTVUVYDVQNALCM-UHFFFAOYSA-N,CCC(C)NCCO,0.6667009336999999,0.0,1,G1,117.192,0.36679999999999985,34.84149999999999,8.0,2.0,2.0,2.0,4.0,50.0,0.0,0.0,0.0,0.0,32.26,50.90805753561664,2.862065598305084,47.79319390447951
A-3467,"bis(2-hydroxypropane-1,2,3-tricarboxylic acid); tris(piperazine)","InChI=1S/C6H8O7.C4H10N2/c7-3(8)1-6(13,5(11)12)2-4(9)10;1-2-6-4-3-5-1/h13H,1-2H2,(H,7,8)(H,9,10)(H,11,12);5-6H,1-4H2",SWDXALWLRYIJHK-UHFFFAOYSA-N,OC(=O)CC(O)(CC(O)=O)C(O)=O.C1CNCCN1,0.2879414183,0.0,1,G1,278.26099999999997,-2.0692999999999966,62.830600000000025,19.0,6.0,6.0,9.0,5.0,110.0,0.0,1.0,1.0,1.0,156.19000000000003,108.78495573353047,4.4307690311427614e-07,300.3300823478244
A-3468,disodium disulphite,"InChI=1S/2Na.H2O5S2/c;;1-6(2)5-7(3)4/h;;(H,1,2)(H,3,4)/q2*+1;/p-2",LDTLADDKFLAYJA-UHFFFAOYSA-L,[Na+].[Na+].[O-][S](=O)O[S]([O-])=O,0.45339108240000003,0.0,1,G1,190.10899999999998,-7.4007999999999985,18.924599999999998,9.0,5.0,0.0,9.0,2.0,44.0,0.0,0.0,0.0,0.0,89.49000000000001,101.48764480413965,-1.7999999002500054e-07,89.13111721021241
A-3469,(E)-1-methyl-3-nitro-2-(oxolan-3-ylmethyl)guanidine,"InChI=1S/C7H14N4O3/c1-8-7(10-11(12)13)9-4-6-2-3-14-5-6/h6H,2-5H2,1H3,(H2,8,9,10)",YKBZOVFACRVRJN-UHFFFAOYSA-N,CN=C(NCC1CCOC1)N[N+]([O-])=O,-0.5694147178,0.12720389127606188,4,G5,202.214,-0.6203999999999994,50.41780000000002,14.0,4.0,2.0,7.0,3.0,80.0,0.0,1.0,1.0,1.0,88.78999999999999,81.65477638599782,2.2301377160238993,224.9747969868553
A-3472,ethyl 3-ethoxypropanoate,"InChI=1S/C7H14O3/c1-3-9-6-5-7(8)10-4-2/h3-6H2,1-2H3",BHXIWUJLHYHGSJ-UHFFFAOYSA-N,CCOCCC(=O)OCC,-0.4317085178,0.005554258900000025,2,G3,146.18599999999998,0.9761000000000001,37.743,10.0,3.0,0.0,3.0,5.0,60.0,0.0,0.0,0.0,0.0,35.53,61.31751627326671,3.0523751890457076,90.85200900961469
A-3473,N-methylcyclohexanamine,"InChI=1S/C7H15N/c1-8-7-5-3-2-4-6-7/h7-8H,2-6H2,1H3",XTUVJUMINZSXGF-UHFFFAOYSA-N,CNC1CCCCC1,-0.3214680129,0.0,1,G1,113.20400000000001,1.5385,35.9327,8.0,1.0,1.0,1.0,1.0,48.0,0.0,1.0,1.0,1.0,12.03,51.47293474428801,2.1250162554146717,55.407165571558394
A-3475,methyl cyanoacetate,"InChI=1S/C4H5NO2/c1-7-4(6)2-3-5/h2H2,1H3",ANGDWNBGPBMQHW-UHFFFAOYSA-N,COC(=O)CC#N,-0.2636316857,0.1691913515,2,G3,99.08900000000001,0.07307999999999992,22.24599999999999,7.0,3.0,0.0,3.0,1.0,38.0,0.0,0.0,0.0,0.0,50.09,41.50172438203874,3.2293841613651484,102.7476472676892
A-3476,sodium 2-hydroxyethanesulfonate,"InChI=1S/C2H6O4S.Na/c3-1-2-7(4,5)6;/h3H,1-2H2,(H,4,5,6);/q;+1/p-1",LADXKQRVAFSPTR-UHFFFAOYSA-M,[Na+].OCC[S]([O-])(=O)=O,0.5569422141,0.0,1,G1,148.11499999999998,-4.472099999999998,21.649999999999995,8.0,4.0,1.0,6.0,2.0,44.0,0.0,0.0,0.0,0.0,77.43,69.94046252717473,0.0,126.97373660251156
A-3477,"N,N,N-triethylethanaminium 1,1,2,2,3,3,4,4,5,5,6,6,7,7,8,8,8-heptadecafluorooctane-1-sulfonate","InChI=1S/C8HF17O3S.C8H20N/c9-1(10,3(13,14)5(17,18)7(21,22)23)2(11,12)4(15,16)6(19,20)8(24,25)29(26,27)28;1-5-9(6-2,7-3)8-4/h(H,26,27,28);5-8H2,1-4H3/q;+1/p-1",JHDXAQHGAJXNBY-UHFFFAOYSA-M,CC[N+](CC)(CC)CC.[O-][S](=O)(=O)C(F)(F)C(F)(F)C(F)(F)C(F)(F)C(F)(F)C(F)(F)C(F)(F)C(F)(F)F,-0.0721808988,0.0,1,G1,629.3730000000002,6.381300000000005,92.80560000000003,38.0,3.0,0.0,22.0,11.0,232.0,0.0,0.0,0.0,0.0,57.199999999999996,203.63175691389318,0.0,877.8743252952659
A-3480,disodium (Z)-1-(octadec-9-enyl) 2-sulphonatosuccinate,"InChI=1S/C22H40O7S.2Na/c1-2-3-4-5-6-7-8-9-10-11-12-13-14-15-16-17-18-29-22(25)20(19-21(23)24)30(26,27)28;;/h9-10,20H,2-8,11-19H2,1H3,(H,23,24)(H,26,27,28);;/q;2*+1/p-2/b10-9+;;",IUCZYYMCWMKCMD-TTWKNDKESA-L,[Na+].[Na+].CCCCCCCC/C=C/CCCCCCCCOC(=O)C(CC([O-])=O)[S]([O-])(=O)=O,-0.9624269120000001,0.0,1,G1,492.5860000000003,-2.3710999999999913,113.52020000000007,32.0,7.0,0.0,10.0,20.0,176.0,0.0,0.0,0.0,0.0,123.63,238.39969083522905,-4.204994880418988e-06,595.0867506222501
A-3481,ethyl 2-cyanoacetate,"InChI=1S/C5H7NO2/c1-2-8-5(7)3-4-6/h2-3H2,1H3",ZIUSEGSNTOUIPT-UHFFFAOYSA-N,CCOC(=O)CC#N,-0.3276124069,0.20949558809414986,3,G5,113.116,0.46318,26.86299999999999,8.0,3.0,0.0,3.0,2.0,44.0,0.0,0.0,0.0,0.0,50.09,47.866666496435336,3.2256857258284852,114.08730238949181
A-3482,"4-[4-[[2,5-dimethoxy-4-[[2-(sulphooxy)ethyl]sulphonyl]phenyl]azo]-4,5-dihydro-3-methyl-5-oxo-1H-pyrazol-1-yl]benzenesulphonic acid, sodium salt","InChI=1S/C20H22N4O12S3.2Na/c1-12-19(20(25)24(23-12)13-4-6-14(7-5-13)38(28,29)30)22-21-15-10-17(35-3)18(11-16(15)34-2)37(26,27)9-8-36-39(31,32)33;;/h4-7,10-11,19H,8-9H2,1-3H3,(H,28,29,30)(H,31,32,33);;/q;2*+1/p-2",JDPMQBDNRSLOKS-UHFFFAOYSA-L,[Na+].[Na+].COc1cc(c(OC)cc1N=NC2C(=NN(C2=O)c3ccc(cc3)[S]([O-])(=O)=O)C)[S](=O)(=O)CCO[S]([O-])(=O)=O,-0.0898430335,0.0,1,G1,650.5770000000002,-5.258599999999991,130.55219999999997,41.0,15.0,0.0,21.0,11.0,212.0,2.0,0.0,1.0,3.0,233.61999999999995,279.8949044199063,4.202495073343547e-06,1663.48748256056
A-3483,"disodium hydrogen 2-hydroxypropane-1,2,3-tricarboxylate","InChI=1S/C6H8O7.2Na/c7-3(8)1-6(13,5(11)12)2-4(9)10;;/h13H,1-2H2,(H,7,8)(H,9,10)(H,11,12);;/q;2*+1/p-2",CEYULKASIQJZGP-UHFFFAOYSA-L,[Na+].[Na+].OC(=O)C(O)(CC([O-])=O)CC([O-])=O,0.3454130072,0.0,1,G1,236.08699999999993,-9.9099,31.833599999999993,15.0,6.0,2.0,9.0,5.0,74.0,0.0,0.0,0.0,0.0,137.79,129.0522621541519,-7.199998836750194e-07,235.86496481873445
A-3487,2-methylpentanedinitrile,"InChI=1S/C6H8N2/c1-6(5-8)3-2-4-7/h6H,2-3H2,1H3",FPPLREPCQJZDAQ-UHFFFAOYSA-N,CC(CCC#N)C#N,-0.3155007402,0.0,1,G1,108.144,1.44986,29.623999999999988,8.0,2.0,0.0,2.0,2.0,42.0,0.0,0.0,0.0,0.0,47.58,49.34912096275001,3.1795221167790872,126.44441158953074
A-3488,1-butoxypropan-2-ol,"InChI=1S/C7H16O2/c1-3-4-5-9-6-7(2)8/h7-8H,3-6H2,1-2H3",RWNUSVWFHDHRCJ-UHFFFAOYSA-N,CCCCOCC(C)O,-0.4052379668,0.0,1,G1,132.203,1.1839,37.407799999999995,9.0,2.0,1.0,2.0,5.0,56.0,0.0,0.0,0.0,0.0,29.46,56.83668269591209,2.746690906857495,52.87784055857758
A-3490,"2H-1,3-dioxol-2-one",InChI=1S/C3H2O3/c4-3-5-1-2-6-3/h1-2H,VAYTZRYEBVHVLE-UHFFFAOYSA-N,O=C1OC=CO1,0.7770765429000001,0.0,1,G1,86.04599999999999,0.23279999999999998,17.243999999999996,6.0,3.0,0.0,3.0,0.0,32.0,1.0,0.0,0.0,1.0,43.35,33.19207130762661,3.4062460774815033,143.8011683847082
A-3492,sodium [(2-methylpropoxy)methanethioyl]sulfanide,"InChI=1S/C5H10OS2.Na/c1-3-4(2)6-5(7)8;/h4H,3H2,1-2H3,(H,7,8);/q;+1",LRHOHFCSKBRDFH-UHFFFAOYSA-N,[Na+].CCC(C)OC(S)=S,0.4688768793,0.0,1,G1,173.258,-0.9797999999999998,42.422000000000025,9.0,2.0,1.0,4.0,2.0,48.0,0.0,0.0,0.0,0.0,9.23,89.2398112482414,0.0,87.02718014856455
A-3495,3-(2-hydroxyethyl)-p-phenylenediammonium sulphate,"InChI=1S/C8H12N2O.H2O4S/c1-5(11)7-4-6(9)2-3-8(7)10;1-5(2,3)4/h2-5,11H,9-10H2,1H3;(H2,1,2,3,4)/p-2",PYHIZOBOFKBJLD-UHFFFAOYSA-L,CC(O)c1cc(N)ccc1N.[O-][S]([O-])(=O)=O,-0.6856367901,0.0,1,G1,248.25999999999996,-0.4336999999999997,56.375200000000014,16.0,7.0,3.0,8.0,1.0,92.0,1.0,0.0,0.0,1.0,152.53,93.27300728633548,3.8454544117090967e-07,435.7419338957232