ID,Name,InChI,InChIKey,SMILES,Solubility,SD,Ocurrences,Group,MolWt,MolLogP,MolMR,HeavyAtomCount,NumHAcceptors,NumHDonors,NumHeteroatoms,NumRotatableBonds,NumValenceElectrons,NumAromaticRings,NumSaturatedRings,NumAliphaticRings,RingCount,TPSA,LabuteASA,BalabanJ,BertzCT
A-2797,4-(2-{4-[2-(3-cyanophenyl)ethenyl]phenyl}ethenyl)benzonitrile,InChI=1S/C24H16N2/c25-17-23-14-11-21(12-15-23)9-6-19-4-7-20(8-5-19)10-13-22-2-1-3-24(16-22)18-26/h1-16H,XSPWINZRSAKTKX-UHFFFAOYSA-N,N#Cc1ccc(C=Cc2ccc(cc2)C=Cc3cccc(c3)C#N)cc1,-8.123728845599999,0.0,1,G1,332.40600000000006,5.7707600000000046,106.61200000000001,26.0,2.0,0.0,2.0,4.0,122.0,3.0,0.0,0.0,3.0,47.58,153.14119751657358,1.675444737646766,1025.309021168029
A-2798,2-[(E)-2-(2-methoxy-4-{3-methoxy-4-[(E)-2-[2-oxo-1-(phenylcarbamoyl)propyl]diazen-1-yl]phenyl}phenyl)diazen-1-yl]-3-oxo-N-phenylbutanamide,"InChI=1S/C34H32N6O6/c1-21(41)31(33(43)35-25-11-7-5-8-12-25)39-37-27-17-15-23(19-29(27)45-3)24-16-18-28(30(20-24)46-4)38-40-32(22(2)42)34(44)36-26-13-9-6-10-14-26/h5-20,31-32H,1-4H3,(H,35,43)(H,36,44)",DMPXHEMGDYKSFL-UHFFFAOYSA-N,COc1cc(ccc1N=NC(C(C)=O)C(=O)Nc2ccccc2)c3ccc(N=NC(C(C)=O)C(=O)Nc4ccccc4)c(OC)c3,-8.6167666964,0.0,1,G1,620.6660000000002,6.7308000000000066,173.09539999999961,46.0,10.0,2.0,12.0,13.0,234.0,4.0,0.0,0.0,4.0,160.23999999999998,265.11856579703823,1.5274486887461214,1644.867677168586
A-2801,tris(2-ethylhexyl) phosphate,"InChI=1S/C24H51O4P/c1-7-13-16-22(10-4)19-26-29(25,27-20-23(11-5)17-14-8-2)28-21-24(12-6)18-15-9-3/h22-24H,7-21H2,1-6H3",GTVWRXDRKAHEAD-UHFFFAOYSA-N,CCCCC(CC)CO[P](=O)(OCC(CC)CCCC)OCC(CC)CCCC,-8.85998044,1.542743112484187,5,G4,434.6420000000004,8.793500000000003,125.38050000000011,29.0,4.0,0.0,5.0,21.0,176.0,0.0,0.0,0.0,0.0,44.760000000000005,182.02316602194728,4.909010055557296,345.28324787197255
A-2802,"2-(diphenyl-1,3,5-triazin-2-yl)-5-(hexyloxy)phenol","InChI=1S/C27H27N3O2/c1-2-3-4-11-18-32-22-16-17-23(24(31)19-22)27-29-25(20-12-7-5-8-13-20)28-26(30-27)21-14-9-6-10-15-21/h5-10,12-17,19,31H,2-4,11,18H2,1H3",LEVFXWNQQSSNAC-UHFFFAOYSA-N,CCCCCCOc1ccc(c(O)c1)c2nc(nc(n2)c3ccccc3)c4ccccc4,-9.1518109699,0.0,1,G1,425.5320000000001,6.537300000000006,127.43679999999998,32.0,5.0,1.0,5.0,9.0,162.0,4.0,0.0,0.0,4.0,68.13,188.359061348611,1.6641558683524003,1090.4169762038334
A-2803,"(1E,19E)-10,11-dioctylicosa-1,19-diene-1,20-diamine","InChI=1S/C72H139N/c1-3-5-7-9-11-13-15-17-19-21-23-25-27-29-31-33-35-37-39-41-43-45-47-49-51-53-55-57-59-61-63-65-67-69-71-73-72-70-68-66-64-62-60-58-56-54-52-50-48-46-44-42-40-38-36-34-32-30-28-26-24-22-20-18-16-14-12-10-8-6-4-2/h23,25,29,31,42,44,48,50,73H,3-22,24,26-28,30,32-41,43,45-47,49,51-72H2,1-2H3/b25-23+,31-29+,44-42+,50-48+",PNJSUECMZCQDCC-ONBHPNORSA-N,CCCCCCCCCCCCCCCCCCCC\C=C\C\C=C\CCCCCCCCCCCNCCCCCCCCCCCCCCCCCCCC\C=C\C\C=C\CCCCCCCCCCC,-9.7071062552,0.0,1,G1,1018.9109999999984,26.24660000000005,337.79770000000025,73.0,1.0,1.0,1.0,66.0,432.0,0.0,0.0,0.0,0.0,12.03,463.4415912048591,3.163328504484034,1049.879138297984
A-2804,"1,2-bis(2-propylheptyl) benzene-1,2-dicarboxylate","InChI=1S/C28H46O4/c1-5-9-11-17-23(15-7-3)21-31-27(29)25-19-13-14-20-26(25)28(30)32-22-24(16-8-4)18-12-10-6-2/h13-14,19-20,23-24H,5-12,15-18,21-22H2,1-4H3",MTYUOIVEVPTXFX-UHFFFAOYSA-N,CCCCCC(CCC)COC(=O)c1ccccc1C(=O)OCC(CCC)CCCCC,-9.6499887292,0.0,1,G1,446.6720000000004,7.993400000000009,132.08700000000005,32.0,4.0,0.0,4.0,18.0,182.0,1.0,0.0,0.0,1.0,52.60000000000001,196.0102642953237,2.6956592410132934,585.0744728730804
A-2805,"2,2-dichloro-1-(3-methyl-2,3-dihydro-1,4-benzoxazin-4-yl)ethanone","InChI=1S/C11H11Cl2NO2/c1-7-6-16-9-5-3-2-4-8(9)14(7)11(15)10(12)13/h2-5,7,10H,6H2,1H3",PFJJMJDEVDLPNE-UHFFFAOYSA-N,CC1COc2ccccc2N1C(=O)C(Cl)Cl,-3.8353901487,0.13935492564999974,2,G3,260.12,2.6042000000000005,64.37900000000003,16.0,2.0,0.0,5.0,1.0,86.0,1.0,0.0,1.0,2.0,29.54,103.89171599146813,2.404984323080204,408.7259654533223
A-2806,(4-fluorophenyl)(piperidin-4-yl)methanone hydrochloride,"InChI=1S/C12H14FNO.ClH/c13-11-3-1-9(2-4-11)12(15)10-5-7-14-8-6-10;/h1-4,10,14H,5-8H2;1H",GPKDBZQZPNOBGM-UHFFFAOYSA-N,[H+].[Cl-].Fc1ccc(cc1)C(=O)C2CCNCC2,0.5890195686999999,0.0,1,G1,243.70899999999995,-0.8754999999999997,57.43620000000003,16.0,2.0,1.0,4.0,2.0,88.0,1.0,1.0,1.0,2.0,29.1,102.13003596097037,1.2799997289000598e-06,352.028190721836
A-2807,"1,3-dihydroxypropan-2-one","InChI=1S/C3H6O3/c4-1-3(6)2-5/h4-5H,1-2H2",RXKJFZQQPQGTFL-UHFFFAOYSA-N,OCC(=O)CO,1.0138642136,0.0,1,G1,90.078,-1.4599000000000002,19.1786,6.0,3.0,2.0,3.0,2.0,36.0,0.0,0.0,0.0,0.0,57.53,35.21912486105855,2.9881608821342693,44.0
A-2809,"disodium 4-[(E)-2-{2,4-dihydroxy-5-[(E)-2-(2-hydroxy-3,5-dinitrophenyl)diazen-1-yl]-3-[(E)-2-(4-nitrophenyl)diazen-1-yl]phenyl}diazen-1-yl]-5-hydroxynaphthalene-2,7-disulfonate","InChI=1S/C28H17N9O16S2.2Na/c38-23-10-17(55(51,52)53)6-12-5-16(54(48,49)50)9-18(24(12)23)30-32-20-11-21(33-31-19-7-15(36(44)45)8-22(26(19)39)37(46)47)28(41)25(27(20)40)34-29-13-1-3-14(4-2-13)35(42)43;;/h1-11,38-41H,(H,48,49,50)(H,51,52,53);;/q;2*+1/p-2",SKCQDFLBBMGDPT-UHFFFAOYSA-L,[Na+].[Na+].Oc1cc(cc2cc(cc(N=Nc3cc(N=Nc4cc(cc(c4O)[N+]([O-])=O)[N+]([O-])=O)c(O)c(N=Nc5ccc(cc5)[N+]([O-])=O)c3O)c12)[S]([O-])(=O)=O)[S]([O-])(=O)=O,-0.9675670248999999,0.0,1,G1,843.5890000000004,0.449200000000002,178.35079999999994,57.0,22.0,4.0,29.0,11.0,282.0,5.0,0.0,0.0,5.0,398.9,359.8446172446801,4.351242429207415e-06,2799.992987534855
A-2811,"disodium 7,7'-(carbonyldiimino)bis[4-hydroxy-3-(phenylazo)naphthalene-2-sulphonate]","InChI=1S/C33H24N6O9S2.2Na/c40-31-25-13-11-23(15-19(25)17-27(49(43,44)45)29(31)38-36-21-7-3-1-4-8-21)34-33(42)35-24-12-14-26-20(16-24)18-28(50(46,47)48)30(32(26)41)39-37-22-9-5-2-6-10-22;;/h1-18,40-41H,(H2,34,35,42)(H,43,44,45)(H,46,47,48);;/q;2*+1/p-2",DSARWKALPGYFTA-UHFFFAOYSA-L,[Na+].[Na+].Oc1c2ccc(NC(=O)Nc3ccc4c(O)c(N=Nc5ccccc5)c(cc4c3)[S]([O-])(=O)=O)cc2cc(c1N=Nc6ccccc6)[S]([O-])(=O)=O,-1.8872466915000001,0.0,1,G1,756.6860000000001,1.695200000000002,181.02939999999975,52.0,13.0,4.0,19.0,8.0,252.0,6.0,0.0,0.0,6.0,245.43,340.15829784169114,3.024994694755501e-06,2416.3418014093922
A-2812,trimethyl(oxiran-2-ylmethyl)azanium chloride,"InChI=1S/C6H14NO.ClH/c1-7(2,3)4-6-5-8-6;/h6H,4-5H2,1-3H3;1H/q+1;/p-1",PUVAFTRIIUSGLK-UHFFFAOYSA-M,[Cl-].C[N+](C)(C)CC1CO1,0.749634411,0.0,1,G1,151.63699999999997,-2.904599999999996,32.63939999999998,9.0,1.0,0.0,3.0,2.0,56.0,0.0,1.0,1.0,1.0,12.53,62.79457408513834,6.399999024000152e-07,85.5488750216347
A-2814,4-(propan-2-yl)benzene-1-sulfonic acid,"InChI=1S/C9H12O3S/c1-7(2)8-3-5-9(6-4-8)13(10,11)12/h3-7H,1-2H3,(H,10,11,12)",CVLHGLWXLDOELD-UHFFFAOYSA-N,CC(C)c1ccc(cc1)[S](O)(=O)=O,0.6127511139,0.0,1,G1,200.25899999999996,2.0567,50.345600000000026,13.0,2.0,1.0,4.0,2.0,72.0,1.0,0.0,0.0,1.0,54.37,78.15486547272738,3.083559884053619,375.82577061537546
A-2816,disodium 2-[4-[[1-[[(2-methoxy-5-methyl-4-sulphonatophenyl)amino]carbonyl]-2-oxopropyl]azo]phenyl]-6-methylbenzothiazole-7-sulphonate,"InChI=1S/C26H24N4O9S3.2Na/c1-13-5-10-18-23(24(13)42(36,37)38)40-26(28-18)16-6-8-17(9-7-16)29-30-22(15(3)31)25(32)27-19-11-14(2)21(41(33,34)35)12-20(19)39-4;;/h5-12,22H,1-4H3,(H,27,32)(H,33,34,35)(H,36,37,38);;/q;2*+1/p-2",ADKFZTIPPMZAKW-UHFFFAOYSA-L,[Na+].[Na+].COc1cc(c(C)cc1NC(=O)C(N=Nc2ccc(cc2)c3sc4c(ccc(C)c4[S]([O-])(=O)=O)n3)C(C)=O)[S]([O-])(=O)=O,-0.9163461364,0.0,1,G1,676.6620000000003,-1.9150599999999918,151.06509999999975,44.0,13.0,1.0,18.0,9.0,220.0,4.0,0.0,0.0,4.0,207.40999999999997,301.1591628386912,3.374995516068621e-06,1979.8694245075994
A-2818,disodium 5-[(E)-2-(2-hydroxynaphthalen-1-yl)diazen-1-yl]-2-{4-[(E)-2-(2-hydroxynaphthalen-1-yl)diazen-1-yl]-2-sulfonatophenyl}benzene-1-sulfonate,"InChI=1S/C32H22N4O8S2.2Na/c37-27-15-9-19-5-1-3-7-23(19)31(27)35-33-21-11-13-25(29(17-21)45(39,40)41)26-14-12-22(18-30(26)46(42,43)44)34-36-32-24-8-4-2-6-20(24)10-16-28(32)38;;/h1-18,33-34H,(H,39,40,41)(H,42,43,44);;/q;2*+1/p-2/b35-31-,36-32-;;",UJLOYSKARDZKTC-IQRNGZOLSA-L,[Na+].[Na+].[O-][S](=O)(=O)c1cc(N\N=C2/C(=O)C=Cc3ccccc23)ccc1c4ccc(N\N=C5/C(=O)C=Cc6ccccc56)cc4[S]([O-])(=O)=O,-1.8973139062,0.0,1,G1,698.6460000000003,-2.0059999999999896,169.0897999999998,48.0,12.0,2.0,16.0,7.0,230.0,4.0,0.0,2.0,6.0,197.32,319.3691111264338,2.6009963131304463e-06,2156.7740907079374
A-2819,4-aminobenzonitrile,"InChI=1S/C7H6N2/c8-5-6-1-3-7(9)4-2-6/h1-4H,9H2",YBAZINRZQSAIAY-UHFFFAOYSA-N,Nc1ccc(cc1)C#N,-1.1429743647,0.010466953400000034,2,G3,118.139,1.1404800000000002,35.569400000000016,9.0,2.0,1.0,2.0,0.0,44.0,1.0,0.0,0.0,1.0,49.81,53.528815612375,3.05603839622726,230.08821798626082
A-2821,potassium 2-sulfanylacetate,"InChI=1S/C2H4O2S.K/c3-2(4)1-5;/h5H,1H2,(H,3,4);/q;+1/p-1",HYTYHTSMCRDHIM-UHFFFAOYSA-M,[K+].[O-]C(=O)CS,0.7806710209000001,0.0,1,G1,130.209,-4.3298999999999985,18.859999999999996,6.0,3.0,1.0,4.0,1.0,30.0,0.0,0.0,0.0,0.0,40.129999999999995,84.13758035323022,0.0,46.81274391313339
A-2822,sodium 2-hydroxy-3-(prop-2-en-1-yloxy)propane-1-sulfonate,"InChI=1S/C6H12O5S.Na/c1-2-3-11-4-6(7)5-12(8,9)10;/h2,6-7H,1,3-5H2,(H,8,9,10);/q;+1/p-1",CJGJYOBXQLCLRG-UHFFFAOYSA-M,[Na+].OC(COCC=C)C[S]([O-])(=O)=O,0.5538399496,0.0,1,G1,218.206,-3.9008999999999974,41.58700000000002,13.0,5.0,1.0,7.0,6.0,72.0,0.0,0.0,0.0,0.0,86.66,99.82417318208377,0.0,225.1791103458067
A-2823,2-(carboxyoxy)ethyl hydrogen carbonate,InChI=1S/C3H4O3/c4-3-5-1-2-6-3/h1-2H2,KMTRUDSVKNLOMY-UHFFFAOYSA-N,O=C1OCCO1,0.9461910523999999,0.05450447380000001,2,G3,88.062,0.1532,17.299999999999997,6.0,3.0,0.0,3.0,0.0,34.0,0.0,1.0,1.0,1.0,35.53,34.85191666215107,2.3673518510178746,60.43856189774725
A-2824,2-methylidenebutanedioic acid,"InChI=1S/C5H6O4/c1-3(5(8)9)2-4(6)7/h1-2H2,(H,6,7)(H,8,9)",LVHBHZANLOWSRM-UHFFFAOYSA-N,OC(=O)CC(=C)C(O)=O,-0.2250282975,0.01751414875,2,G3,130.099,0.10190000000000005,29.02859999999999,9.0,2.0,2.0,4.0,3.0,50.0,0.0,0.0,0.0,0.0,74.6,51.42092815771127,3.788427600543414,158.34093004940027
A-2826,(2S)-2-amino-5-carbamimidamidopentanoic acid hydrochloride,"InChI=1S/C6H14N4O2.ClH/c7-4(5(11)12)2-1-3-10-6(8)9;/h4H,1-3,7H2,(H,11,12)(H4,8,9,10);1H/t4-;/m0./s1",KWTQSFXGGICVPE-WCCKRBBISA-N,[Cl-].N[C@@H](CCCN=C(N)N)C(O)=O.[H+],0.5397304724,0.0,1,G1,210.665,-4.431599999999998,46.634,13.0,3.0,4.0,7.0,5.0,78.0,0.0,0.0,0.0,0.0,127.72,84.07260365099557,-6.0499989110002e-07,186.670317699974
A-2828,sodium 3-[[4-(benzoylethylamino)-2-methylphenyl]azo]-4-hydroxynaphthalene-1-sulphonate,"InChI=1S/C26H23N3O5S.Na/c1-16-14-19(27-17(2)25(30)18-8-4-3-5-9-18)12-13-22(16)28-29-23-15-24(35(32,33)34)20-10-6-7-11-21(20)26(23)31;/h3-15,17,27-28H,1-2H3,(H,32,33,34);/q;+1/p-1/b29-23+;",RIHHHARTNPZGHI-BTCGTBLPSA-M,[Na+].CC(Nc1ccc(N\N=C\2C=C(c3ccccc3C2=O)[S]([O-])(=O)=O)c(C)c1)C(=O)c4ccccc4,-1.8129006218000001,0.0,1,G1,511.5350000000003,1.2328200000000005,134.54059999999993,36.0,8.0,2.0,10.0,7.0,178.0,3.0,0.0,1.0,4.0,127.75999999999999,231.0999569672357,3.609992973497518e-06,1484.4242348228647
A-2831,2-(chloromethyl)oxirane,"InChI=1S/C3H5ClO/c4-1-3-2-5-3/h3H,1-2H2",BRLQWZUYTZBJKN-UHFFFAOYSA-N,ClCC1CO1,-0.1473736792,0.0,1,G1,92.525,0.624,20.459999999999994,5.0,1.0,0.0,2.0,1.0,30.0,0.0,1.0,1.0,1.0,12.53,35.88011555948209,1.9989394851788977,33.87430298092722
A-2833,trisodium 2-[bis(carboxylatomethyl)amino]acetate,"InChI=1S/C6H9NO6.3Na/c8-4(9)1-7(2-5(10)11)3-6(12)13;;;/h1-3H2,(H,8,9)(H,10,11)(H,12,13);;;/q;3*+1/p-3",DZCAZXAJPZCSCU-UHFFFAOYSA-K,[Na+].[Na+].[Na+].[O-]C(=O)CN(CC([O-])=O)CC([O-])=O,0.3961032361,0.08115148729999999,2,G3,257.0849999999999,-14.449900000000003,31.46099999999999,16.0,7.0,0.0,10.0,6.0,74.0,0.0,0.0,0.0,0.0,123.63,158.43126169487115,-2.3999997095000365e-07,198.26466250649042
A-2834,"sodium 2,4-diamino-5-[(E)-2-(2-hydroxy-5-nitrophenyl)diazen-1-yl]benzene-1-sulfonate","InChI=1S/C12H11N5O6S.Na/c13-7-4-8(14)12(24(21,22)23)5-9(7)15-16-10-3-6(17(19)20)1-2-11(10)18;/h1-5,18H,13-14H2,(H,21,22,23);/q;+1/p-1",QHMUUKSTOXAOST-UHFFFAOYSA-M,[Na+].Nc1cc(N)c(cc1N=Nc2cc(ccc2O)[N+]([O-])=O)[S]([O-])(=O)=O,-0.7639420940999999,0.0,1,G1,375.2980000000001,-1.2116999999999993,82.1672,25.0,10.0,3.0,13.0,4.0,126.0,2.0,0.0,0.0,2.0,197.33,163.10430167152396,3.124997327085682e-06,962.7083780256044
A-2836,di(phenyl)methanimine,"InChI=1S/C13H11N/c14-13(11-7-3-1-4-8-11)12-9-5-2-6-10-12/h1-10,14H",SXZIXHOMFPUIRK-UHFFFAOYSA-N,N=C(c1ccccc1)c2ccccc2,-2.7811280063,0.0,1,G1,181.238,3.1027700000000014,58.81470000000003,14.0,1.0,1.0,1.0,2.0,68.0,2.0,0.0,0.0,2.0,23.85,83.53879043922241,2.348637604509715,376.003255415297
A-2838,sodium 2-sulfanylacetate,"InChI=1S/C2H4O2S.Na/c3-2(4)1-5;/h5H,1H2,(H,3,4);/q;+1/p-1",GNBVPFITFYNRCN-UHFFFAOYSA-M,[Na+].[O-]C(=O)CS,0.7273991488,0.0,1,G1,114.10099999999998,-4.3298999999999985,18.859999999999996,6.0,3.0,1.0,4.0,1.0,30.0,0.0,0.0,0.0,0.0,40.129999999999995,63.6284152805796,0.0,46.81274391313339
A-2839,"potassium 3,5,5-trimethylhexanoate","InChI=1S/C9H18O2.K/c1-7(5-8(10)11)6-9(2,3)4;/h7H,5-6H2,1-4H3,(H,10,11);/q;+1/p-1",PMTWGKHDSHSGIL-UHFFFAOYSA-M,[K+].CC(CC([O-])=O)CC(C)(C)C,0.48516237170000004,0.0,1,G1,196.33099999999996,-1.7972999999999977,42.860000000000014,12.0,2.0,0.0,3.0,3.0,66.0,0.0,0.0,0.0,0.0,40.129999999999995,117.53710849060478,0.0,137.95418659385768
A-2840,"sodium 2-amino-4-nitrophenol benzene-1,3-diol 2-amino-4-nitro-6-sulfobenzen-1-olate iron sodium hydride","InChI=1S/C6H6N2O6S.C6H6N2O3.C6H6O2.Fe.2Na/c7-4-1-3(8(10)11)2-5(6(4)9)15(12,13)14;7-5-3-4(8(10)11)1-2-6(5)9;7-5-2-1-3-6(8)4-5;;;/h1-2,9H,7H2,(H,12,13,14);1-3,9H,7H2;1-4,7-8H;;;/q;;;;;+1/p-1",KABLUZZLSKUJBA-UHFFFAOYSA-M,[Na].[Na+].[Fe].Nc1cc(ccc1O)[N+]([O-])=O.Nc2cc(cc(c2O)[S]([O-])(=O)=O)[N+]([O-])=O.Oc3cccc(O)c3,-0.9940566873000001,0.020350274689530972,3,G5,599.2430000000003,-1.6121999999999985,121.83599999999998,37.0,13.0,6.0,19.0,3.0,191.0,3.0,0.0,0.0,3.0,276.44,263.7709772141779,-4.6945743428140836e-07,1313.772994538374
A-2843,disodium 7-anilino-4-hydroxy-3-({2-methoxy-5-methyl-4-[(4-sulfonatophenyl)diazenyl]phenyl}diazenyl)naphthalene-2-sulfonate,"InChI=1S/C30H25N5O8S2.2Na/c1-18-14-26(27(43-2)17-25(18)33-32-21-8-11-23(12-9-21)44(37,38)39)34-35-29-28(45(40,41)42)16-19-15-22(10-13-24(19)30(29)36)31-20-6-4-3-5-7-20;;/h3-17,31,34H,1-2H3,(H,37,38,39)(H,40,41,42);;/q;2*+1/p-2/b33-32?,35-29+;;",FXQXWRHUUBSXMQ-DFLIUALPSA-L,[Na+].[Na+].COc1cc(N=Nc2ccc(cc2)[S]([O-])(=O)=O)c(C)cc1N\N=C/3C(=O)c4ccc(Nc5ccccc5)cc4C=C3[S]([O-])(=O)=O,-2.0454014741999997,0.0,1,G1,691.6550000000003,-0.3747799999999937,165.54129999999978,47.0,13.0,2.0,17.0,9.0,230.0,4.0,0.0,1.0,5.0,201.84,314.86800355121125,3.001245608049962e-06,2123.5205099440977
A-2845,"disodium 5-benzamido-4-hydroxy-3-[(E)-2-[2-(2-methylphenoxy)phenyl]diazen-1-yl]naphthalene-2,7-disulfonate","InChI=1S/C30H23N3O9S2.2Na/c1-18-9-5-7-13-24(18)42-25-14-8-6-12-22(25)32-33-28-26(44(39,40)41)16-20-15-21(43(36,37)38)17-23(27(20)29(28)34)31-30(35)19-10-3-2-4-11-19;;/h2-17,32H,1H3,(H,31,35)(H,36,37,38)(H,39,40,41);;/q;2*+1/p-2/b33-28+;;",DBWPJEFEDHFXDH-RAHJWFRPSA-L,[Na+].[Na+].Cc1ccccc1Oc2ccccc2N\N=C/3C(=O)c4c(NC(=O)c5ccccc5)cc(cc4C=C3[S]([O-])(=O)=O)[S]([O-])(=O)=O,-2.0506714672,0.0,1,G1,677.6240000000004,-1.4977799999999937,159.55779999999976,46.0,11.0,2.0,16.0,8.0,224.0,4.0,0.0,1.0,5.0,194.18999999999997,308.5827478067659,2.879996415129661e-06,2103.1065507675503
A-2846,3-(morpholin-4-yl)propane-1-sulfonic acid,"InChI=1S/C7H15NO4S/c9-13(10,11)7-1-2-8-3-5-12-6-4-8/h1-7H2,(H,9,10,11)",DVLFYONBTKHTER-UHFFFAOYSA-N,[O-][S](=O)(=O)CCC[NH+]1CCOCC1,0.45578250740000004,0.0,1,G1,209.26699999999994,-2.1631999999999962,45.563900000000025,13.0,4.0,1.0,6.0,4.0,78.0,0.0,1.0,1.0,1.0,70.86999999999999,78.42508747043082,2.112006563790775,232.87709722476782
A-2848,"octasodium 7,7'-[(2,2'-disulphonato[1,1'-biphenyl]-4,4'-diyl)bis[imino(6-chloro-1,3,5-triazine-4,2-diyl)imino[2-(carbamoylamino)]-4,1-phenylene]azo]]bis(naphthalene-1,3,6-trisulphonate)","InChI=1S/C52H38Cl2N18O26S8.8Na/c53-45-63-49(57-23-3-7-33(35(13-23)61-47(55)73)69-71-37-19-31-21(11-43(37)105(93,94)95)9-27(99(75,76)77)17-41(31)103(87,88)89)67-51(65-45)59-25-1-5-29(39(15-25)101(81,82)83)30-6-2-26(16-40(30)102(84,85)86)60-52-66-46(54)64-50(68-52)58-24-4-8-34(36(14-24)62-48(56)74)70-72-38-20-32-22(12-44(38)106(96,97)98)10-28(100(78,79)80)18-42(32)104(90,91)92;;;;;;;;/h1-20H,(H3,55,61,73)(H3,56,62,74)(H,75,76,77)(H,78,79,80)(H,81,82,83)(H,84,85,86)(H,87,88,89)(H,90,91,92)(H,93,94,95)(H,96,97,98)(H2,57,59,63,65,67)(H2,58,60,64,66,68);;;;;;;;/q;8*+1/p-8",WAPHSRMHUOCGQE-UHFFFAOYSA-F,[Na+].[Na+].[Na+].[Na+].[Na+].[Na+].[Na+].[Na+].NC(=O)Nc1cc(Nc2nc(Cl)nc(Nc3ccc(c4ccc(Nc5nc(Cl)nc(Nc6ccc(N=Nc7cc8c(cc(cc8[S]([O-])(=O)=O)[S]([O-])(=O)=O)cc7[S]([O-])(=O)=O)c(NC(N)=O)c6)n5)cc4[S]([O-])(=O)=O)c(c3)[S]([O-])(=O)=O)n2)ccc1N=Nc9cc%10c(cc(cc%10[S]([O-])(=O)=O)[S]([O-])(=O)=O)cc9[S]([O-])(=O)=O,-1.4981682805,0.0,1,G1,1834.2740000000003,-18.611999999999938,353.9326000000003,114.0,40.0,8.0,62.0,23.0,554.0,10.0,0.0,0.0,10.0,742.7400000000001,830.3805356404112,5.51040708193304e-06,6185.091349333452
A-2849,lithium(1+) ion chloride,InChI=1S/ClH.Li/h1H;/q;+1/p-1,KWGKDLIKAYFUFQ-UHFFFAOYSA-M,[Li+].[Cl-],1.1343979721,0.07999205395000009,2,G3,42.394000000000005,-5.992,0.0,2.0,0.0,0.0,2.0,0.0,8.0,0.0,0.0,0.0,0.0,0.0,31.81913653838555,0.0,2.0
A-2850,2-piperidin-2-ylethanol,"InChI=1S/C7H15NO/c9-6-4-7-3-1-2-5-8-7/h7-9H,1-6H2/p+1/t7-/m0/s1",PTHDBHDZSMGHKF-ZETCQYMHSA-O,OCC[C@@H]1CCCC[NH2+]1,0.6427483546,0.0,1,G1,130.211,-0.5152999999999992,36.134199999999986,9.0,1.0,2.0,2.0,2.0,54.0,0.0,1.0,1.0,1.0,36.84,56.267168496484025,2.0778607554610558,66.56151495416137
A-2851,"2-amino-2-(hydroxymethyl)propane-1,3-diol hydrochloride","InChI=1S/C4H11NO3.ClH/c5-4(1-6,2-7)3-8;/h6-8H,1-3,5H2;1H",QKNYBSVHEMOAJP-UHFFFAOYSA-N,[H+].[Cl-].NC(CO)(CO)CO,0.5514149152000001,0.0,1,G1,157.59699999999998,-5.222699999999997,29.287799999999994,9.0,4.0,4.0,5.0,3.0,58.0,0.0,0.0,0.0,0.0,86.71000000000001,61.194560946665064,-2.4499998250000135e-07,63.25838096618136
A-2852,2-methylpropyl (2R)-2-hydroxypropanoate,"InChI=1S/C7H14O3/c1-5(2)4-10-7(9)6(3)8/h5-6,8H,4H2,1-3H3/t6-/m1/s1",WBPAQKQBUKYCJS-ZCFIWIBFSA-N,CC(C)COC(=O)[C@@H](C)O,-0.4128573351,0.03676503440000001,2,G3,146.18599999999998,0.5664,37.477799999999995,10.0,3.0,1.0,3.0,3.0,60.0,0.0,0.0,0.0,0.0,46.53,60.99820479595584,3.4037533061532064,107.41884680991984
A-2853,calcium 2-sulfanidylacetate,"InChI=1S/C2H4O2S.Ca/c3-2(4)1-5;/h5H,1H2,(H,3,4);/q;+2/p-1",QVCFQEFEMBCIOI-UHFFFAOYSA-M,[Ca++].[O-]C(=O)CS,-0.3838981351,0.0,1,G1,131.18900000000002,-1.7147000000000001,24.613999999999997,6.0,3.0,1.0,4.0,1.0,30.0,0.0,0.0,0.0,0.0,40.129999999999995,71.33078365309184,0.0,46.81274391313339
A-2854,"3-(aminomethyl)-3,5,5-trimethylcyclohexan-1-ol","InChI=1S/C10H21NO/c1-9(2)4-8(12)5-10(3,6-9)7-11/h8,12H,4-7,11H2,1-3H3",YFEAYNIMJBHJCM-UHFFFAOYSA-N,CC1(C)CC(O)CC(C)(CN)C1,0.488999371,0.0,1,G1,171.28399999999996,1.5224,50.800200000000025,12.0,2.0,2.0,2.0,1.0,72.0,0.0,1.0,1.0,1.0,46.25,75.1520233530785,2.6956765704316275,167.22151457063651
A-2855,sodium 2-methylprop-2-ene-1-sulfonate,"InChI=1S/C4H8O3S.Na/c1-4(2)3-8(5,6)7;/h1,3H2,2H3,(H,5,6,7);/q;+1/p-1",SZHIIIPPJJXYRY-UHFFFAOYSA-M,[Na+].CC(=C)C[S]([O-])(=O)=O,0.5194215084,0.0,1,G1,158.154,-2.8882999999999983,29.37819999999999,9.0,3.0,0.0,5.0,2.0,48.0,0.0,0.0,0.0,0.0,57.199999999999996,77.18650997158768,0.0,181.98942873085844
A-2856,dipotassium O-[(sulfonatoperoxy)sulfonyl]oxidanidolate,"InChI=1S/2K.H2O8S2/c;;1-9(2,3)7-8-10(4,5)6/h;;(H,1,2,3)(H,4,5,6)/q2*+1;/p-2",USHAGKDGDHPEEY-UHFFFAOYSA-L,[K+].[K+].[O-][S](=O)(=O)OO[S]([O-])(=O)=O,-0.6537301416,0.0,1,G1,270.322,-8.136999999999999,21.5644,12.0,8.0,0.0,12.0,3.0,62.0,0.0,0.0,0.0,0.0,132.85999999999999,154.05110385110748,-4.0499995882500426e-07,251.01955000865388
A-2857,(2S)-2-hydroxy-3-(phenylamino)propane-1-sulfonate,"InChI=1S/C9H13NO4S/c11-9(7-15(12,13)14)6-10-8-4-2-1-3-5-8/h1-5,9-11H,6-7H2,(H,12,13,14)/p-1/t9-/m0/s1",CLEVULOKVPBHCU-VIFPVBQESA-M,O[C@@H](CNc1ccccc1)C[S]([O-])(=O)=O,0.1187844902,0.0,1,G1,230.26499999999996,0.0045999999999999375,55.50270000000003,15.0,5.0,2.0,6.0,5.0,84.0,1.0,0.0,0.0,1.0,89.45999999999998,88.49896140853144,2.3813747338540936,389.8331882179959