ID,Name,InChI,InChIKey,SMILES,Solubility,SD,Ocurrences,Group,MolWt,MolLogP,MolMR,HeavyAtomCount,NumHAcceptors,NumHDonors,NumHeteroatoms,NumRotatableBonds,NumValenceElectrons,NumAromaticRings,NumSaturatedRings,NumAliphaticRings,RingCount,TPSA,LabuteASA,BalabanJ,BertzCT
A-2858,"2-[2-[4-[(2-cyanoethyl)methylamino]phenyl]vinyl]-1,3,3-trimethyl-3H-indolium dihydrogen phosphate","InChI=1S/C23H26N3.H3O4P/c1-23(2)20-8-5-6-9-21(20)26(4)22(23)15-12-18-10-13-19(14-11-18)25(3)17-7-16-24;1-5(2,3)4/h5-6,8-15H,7,17H2,1-4H3;(H3,1,2,3,4)/q+1;/p-1",XVIVSJJRGUZEAO-UHFFFAOYSA-M,CN(CCC#N)c1ccc(cc1)C=CC2=[N+](C)c3ccccc3C2(C)C.O[P](O)([O-])=O,-0.9304018204000001,0.0,1,G1,441.46800000000013,3.195280000000003,121.33950000000003,31.0,4.0,2.0,8.0,5.0,164.0,2.0,0.0,1.0,3.0,110.63,183.00327680693013,6.137434550252468e-07,1054.7096627000126
A-2859,"sodium 3-[2-heptyl-3-(2-hydroxyethyl)-2,3-dihydro-1H-imidazol-1-yl]propanoate","InChI=1S/C15H28N2O3.Na/c1-2-3-4-5-6-7-14-16(9-8-15(19)20)10-11-17(14)12-13-18;/h10-11,14,18H,2-9,12-13H2,1H3,(H,19,20);/q;+1/p-1",YIJNRGGQSJNTGE-UHFFFAOYSA-M,[Na+].CCCCCCCC1N(CCO)C=CN1CCC([O-])=O,0.2127067575,0.0,1,G1,306.3820000000001,-2.1018999999999943,76.42580000000004,21.0,5.0,1.0,6.0,11.0,116.0,0.0,0.0,1.0,1.0,66.84,149.83606301122308,3.9999964750032745e-06,313.2938551785738
A-2860,tetrasodium 2-({2-[bis(carboxylatomethyl)amino]ethyl}(carboxylatomethyl)amino)acetate,"InChI=1S/C10H16N2O8.4Na/c13-7(14)3-11(4-8(15)16)1-2-12(5-9(17)18)6-10(19)20;;;;/h1-6H2,(H,13,14)(H,15,16)(H,17,18)(H,19,20);;;;/q;4*+1/p-4",UEUXEKPTXMALOB-UHFFFAOYSA-J,[Na+].[Na+].[Na+].[Na+].[O-]C(=O)CN(CCN(CC([O-])=O)CC([O-])=O)CC([O-])=O,0.11898987679999999,0.03222899460000001,2,G3,380.1720000000002,-19.393999999999984,52.90800000000002,24.0,10.0,0.0,14.0,11.0,114.0,0.0,0.0,0.0,0.0,167.0,227.02001929761266,-3.008332710291799e-07,331.0544191722806
A-2863,chromium(3+) ion trifluoride,InChI=1S/Cr.3F,QZEZRQVFRMLNPK-UHFFFAOYSA-N,[F].[F].[F].[Cr],-0.3384166482,0.22599473205330645,3,G5,108.99000000000001,1.2581000000000002,3.3240000000000003,4.0,0.0,0.0,4.0,0.0,27.0,0.0,0.0,0.0,0.0,0.0,32.42797964509352,-0.0,3.2451124978365313
A-2864,oxiran-2-ylmethyl 2-methylprop-2-enoate,"InChI=1S/C7H10O3/c1-5(2)7(8)10-4-6-3-9-6/h6H,1,3-4H2,2H3",VOZRXNHHFUQHIL-UHFFFAOYSA-N,CC(=C)C(=O)OCC1CO1,-0.45378908030000004,0.0,1,G1,142.154,0.5045000000000001,35.513,10.0,3.0,0.0,3.0,3.0,56.0,0.0,1.0,1.0,1.0,38.83,59.622082087553224,2.107751696006494,158.23415450316315
A-2865,3-nitro-2H-pyrazole,"InChI=1S/C3H3N3O2/c7-6(8)3-1-2-4-5-3/h1-2H,(H,4,5)",MZRUFMBFIKGOAL-UHFFFAOYSA-N,[O-][N+](=O)c1[nH]ncc1,-1.2854728211,0.0,1,G1,113.076,0.31789999999999985,25.2421,8.0,3.0,1.0,5.0,1.0,42.0,1.0,0.0,0.0,1.0,71.82,44.48164081236229,2.9283752374267684,180.41842212960407
A-2868,sodium bis[2-[[5-(aminosulphonyl)-2-hydroxyphenyl]azo]-3-oxo-N-phenylbutyramidato(2-)]cobaltate(1-),"InChI=1S/2C16H16N4O5S.Co.Na/c2*1-10(21)15(16(23)18-11-5-3-2-4-6-11)20-19-13-9-12(26(17,24)25)7-8-14(13)22;;/h2*2-9H,1H3,(H5,17,18,19,20,21,22,23,24,25);;/q;;+3;+1/p-4",GOMMRZOFKXWNAB-UHFFFAOYSA-J,[Na+].[Co+3].CC(=O)/C(=N/Nc1cc(ccc1[O-])[S](N)(=O)=O)C(=O)[N-]c2ccccc2.CC(=O)/C(=N/Nc3cc(ccc3[O-])[S](N)(=O)=O)C(=O)[N-]c4ccccc4,-2.2084701124,0.0,1,G1,830.6790000000001,-1.005499999999991,186.93579999999977,54.0,14.0,4.0,22.0,12.0,278.0,4.0,0.0,0.0,4.0,311.7,341.62774174061065,5.207142651784445e-07,2118.1201663191773
A-2869,"2-hexoxypropane-1,3-diol","InChI=1S/C9H20O3/c1-2-3-4-5-6-12-9(7-10)8-11/h9-11H,2-8H2,1H3",PXWAQUODOTWYMT-UHFFFAOYSA-N,CCCCCCOC(CO)CO,-1.0558122117,0.0,1,G1,176.25599999999997,0.9364999999999999,48.053600000000024,12.0,3.0,2.0,3.0,8.0,74.0,0.0,0.0,0.0,0.0,49.69,74.3608006769013,3.062399016717871,81.84283310353014
A-2870,1-ethyl-1-methylpyrrolidin-1-ium bromide,"InChI=1S/C7H16N.BrH/c1-3-8(2)6-4-5-7-8;/h3-7H2,1-2H3;1H/q+1;/p-1",KHJQQUGSPDBDRM-UHFFFAOYSA-M,[Br-].CC[N+]1(C)CCCC1,1.4101871429,0.0,1,G1,194.11599999999996,-1.7492999999999979,35.69339999999999,9.0,0.0,0.0,2.0,1.0,56.0,0.0,1.0,1.0,1.0,0.0,68.40557982992617,6.399999120000125e-07,76.98533616859814
A-2871,potassium benzoate,"InChI=1S/C7H6O2.K/c8-7(9)6-4-2-1-3-5-6;/h1-5H,(H,8,9);/q;+1/p-1",XAEFZNCEHLXOMS-UHFFFAOYSA-M,[K+].[O-]C(=O)c1ccccc1,0.4872673501,0.0,1,G1,160.213,-2.945899999999998,30.772499999999994,10.0,2.0,0.0,3.0,1.0,46.0,1.0,0.0,0.0,1.0,40.129999999999995,101.67466578149596,8.099998872750162e-07,208.1059085401538
A-2872,1-benzyl-3-carbamoylpyridin-1-ium chloride,"InChI=1S/C13H12N2O.ClH/c14-13(16)12-7-4-8-15(10-12)9-11-5-2-1-3-6-11;/h1-8,10H,9H2,(H-,14,16);1H",XLYNVJJFQHWCEU-UHFFFAOYSA-N,[Cl-].NC(=O)c1ccc[n+](Cc2ccccc2)c1,0.2936103731,0.0,1,G1,248.713,-1.8746999999999958,60.69890000000003,17.0,1.0,1.0,4.0,3.0,88.0,2.0,0.0,0.0,2.0,46.970000000000006,106.30250707150196,1.4449993557002957e-06,499.7824659581835
A-2873,"4-[(3S)-3-ethenyl-3,7-dimethylocta-1,6-dienyl]phenol","InChI=1S/C18H24O/c1-5-18(4,13-6-7-15(2)3)14-12-16-8-10-17(19)11-9-16/h5,7-12,14,19H,1,6,13H2,2-4H3/b14-12+/t18-/m1/s1",LFYJSSARVMHQJB-QIXNEVBVSA-N,CC(C)=CCC[C@@](C)(C=C)\C=C\c1ccc(O)cc1,-6.3370173812,0.0,1,G1,256.389,5.344100000000005,84.10980000000005,19.0,1.0,1.0,1.0,6.0,102.0,1.0,0.0,0.0,1.0,20.23,116.53613314789952,2.7103278273301616,460.96857978203565
A-2874,sodium oxidooxy-oxoborane hydrate,InChI=1S/BHO3.Na.H2O/c2-1-4-3;;/h3H;;1H2/q;+1;/p-1,MDGXUEVTGARGDK-UHFFFAOYSA-M,O.[Na+].[O-]OB=O,-0.8231002009999999,0.0,1,G1,99.814,-5.577699999999998,11.139299999999999,6.0,3.0,0.0,6.0,1.0,30.0,0.0,0.0,0.0,0.0,80.86000000000001,57.305183695952955,-4.499999910000001e-08,21.509775004326936
A-2875,(3-methoxy-3-methylbutyl) acetate,"InChI=1S/C8H16O3/c1-7(9)11-6-5-8(2,3)10-4/h5-6H2,1-4H3",RYNQKSJRFHJZTK-UHFFFAOYSA-N,COC(C)(C)CCOC(C)=O,-0.4390291979,0.0,1,G1,160.213,1.3646,42.338000000000015,11.0,3.0,0.0,3.0,4.0,66.0,0.0,0.0,0.0,0.0,35.53,67.68245838766333,3.4519855819553404,129.2988603028468
A-2876,Chromic phosphate,"InChI=1S/Cr.H3O4P/c;1-5(2,3)4/h;(H3,1,2,3,4)/q+3;/p-3",IKZBVTPSNGOVRJ-UHFFFAOYSA-K,[Cr+3].[O-][P]([O-])([O-])=O,0.4859956397,0.0,1,G1,146.966,-2.8271,7.6065,6.0,4.0,0.0,6.0,0.0,35.0,0.0,0.0,0.0,0.0,86.25,45.18013383648277,0.0,53.68367439558379
A-2879,"disodium 2-amino-4,6-dinitrophenol 4-nitroaniline 8-{2-[(1E)-2-oxido-4-oxocyclohexa-2,5-dien-1-ylidene]hydrazin-1-yl}-3,6-disulfonaphthalen-1-olate iron","InChI=1S/C16H12N2O9S2.C6H5N3O5.C6H6N2O2.Fe.2Na/c19-9-1-2-12(14(20)5-9)17-18-13-6-10(28(22,23)24)3-8-4-11(29(25,26)27)7-15(21)16(8)13;7-4-1-3(8(11)12)2-5(6(4)10)9(13)14;7-5-1-3-6(4-2-5)8(9)10;;;/h1-7,18,20-21H,(H,22,23,24)(H,25,26,27);1-2,10H,7H2;1-4H,7H2;;;/q;;;;2*+1/p-2/b17-12+;;;;;",VKGDLXPXGUTJRE-JEZQZZQZSA-L,[Na+].[Na+].[Fe].Nc1ccc(cc1)[N+]([O-])=O.Nc2cc(cc(c2O)[N+]([O-])=O)[N+]([O-])=O.OC/3=CC(=O)C=CC3=N/Nc4cc(cc5cc(cc(O)c45)[S]([O-])(=O)=O)[S]([O-])(=O)=O,-1.3075465248,0.11251102504252349,3,G5,877.4680000000003,-3.324399999999993,180.79250000000002,56.0,20.0,6.0,28.0,7.0,286.0,4.0,0.0,1.0,5.0,398.00999999999993,368.3214779844862,9.343800043347088e-07,2497.2704920377605
A-2880,"octasodium 2,2'-{1,4-phenylenebis[imino(6-chloro-1,3,5-triazine-4,2-diyl)imino(8-hydroxy-3,6-disulfonatonaphthalene-7,1-diyl)diazene-2,1-diyl]}dinaphthalene-1,5-disulfonate","InChI=1S/C52H34Cl2N14O26S8.8Na/c53-47-59-49(63-51(61-47)57-41-37(99(83,84)85)17-21-15-25(95(71,72)73)19-33(39(21)43(41)69)67-65-31-13-11-27-29(45(31)101(89,90)91)3-1-5-35(27)97(77,78)79)55-23-7-9-24(10-8-23)56-50-60-48(54)62-52(64-50)58-42-38(100(86,87)88)18-22-16-26(96(74,75)76)20-34(40(22)44(42)70)68-66-32-14-12-28-30(46(32)102(92,93)94)4-2-6-36(28)98(80,81)82;;;;;;;;/h1-20,69-70H,(H,71,72,73)(H,74,75,76)(H,77,78,79)(H,80,81,82)(H,83,84,85)(H,86,87,88)(H,89,90,91)(H,92,93,94)(H2,55,57,59,61,63)(H2,56,58,60,62,64);;;;;;;;/q;8*+1/p-8",ODAJTFUSCNWRHZ-UHFFFAOYSA-F,[Na+].[Na+].[Na+].[Na+].[Na+].[Na+].[Na+].[Na+].Oc1c(Nc2nc(Cl)nc(Nc3ccc(Nc4nc(Cl)nc(Nc5c(O)c6c(cc(cc6N=Nc7ccc8c(cccc8[S]([O-])(=O)=O)c7[S]([O-])(=O)=O)[S]([O-])(=O)=O)cc5[S]([O-])(=O)=O)n4)cc3)n2)c(cc9cc(cc(N=Nc%10ccc%11c(cccc%11[S]([O-])(=O)=O)c%10[S]([O-])(=O)=O)c19)[S]([O-])(=O)=O)[S]([O-])(=O)=O,-0.634868411,0.0,1,G1,1774.2140000000004,-17.54259999999995,340.42600000000033,110.0,40.0,6.0,58.0,20.0,530.0,11.0,0.0,0.0,11.0,672.9600000000002,807.4428038120875,3.919994123975716e-06,6221.166755648644
A-2881,benzyldimethyltetradecylazanium chloride,"InChI=1S/C23H42N.ClH/c1-4-5-6-7-8-9-10-11-12-13-14-18-21-24(2,3)22-23-19-16-15-17-20-23;/h15-17,19-20H,4-14,18,21-22H2,1-3H3;1H/q+1;/p-1",OCBHHZMJRVXXQK-UHFFFAOYSA-M,[Cl-].CCCCCCCCCCCCCC[N+](C)(C)Cc1ccccc1,-0.9531217854,1.0747684048570405,5,G4,368.04900000000004,3.9681000000000015,108.1994000000001,25.0,0.0,0.0,2.0,15.0,146.0,1.0,0.0,0.0,1.0,0.0,163.7583174735874,5.759991038414532e-06,388.33908051555284
A-2882,nickel(2+) difluoride,InChI=1S/2FH.Ni/h2*1H;/q;;+2/p-2,DBJLJFTWODWSOF-UHFFFAOYSA-L,[F-].[F-].[Ni++],-0.3833170773,0.0,1,G1,96.689,-5.9945,0.0,3.0,0.0,0.0,3.0,0.0,24.0,0.0,0.0,0.0,0.0,0.0,26.87255630841787,-0.0,2.7548875021634682
A-2885,"(2,5-dioxoimidazolidin-4-yl)urea","InChI=1S/C4H6N4O3/c5-3(10)6-1-2(9)8-4(11)7-1/h1H,(H3,5,6,10)(H2,7,8,9,11)",POJWUDADGALRAB-UHFFFAOYSA-N,NC(=O)NC1NC(=O)NC1=O,-1.5087824856999998,0.051868840287810414,3,G5,158.117,-2.1798,33.18149999999999,11.0,3.0,4.0,7.0,1.0,60.0,0.0,1.0,1.0,1.0,113.32,61.302289765458276,2.534438673083989,225.37706033746232
A-2887,disodium 7-benzamido-4-hydroxy-3-[(E)-2-{4-[(E)-2-(4-sulfonatophenyl)diazen-1-yl]phenyl}diazen-1-yl]naphthalene-2-sulfonate,"InChI=1S/C29H21N5O8S2.2Na/c35-28-25-15-12-23(30-29(36)18-4-2-1-3-5-18)16-19(25)17-26(44(40,41)42)27(28)34-33-21-8-6-20(7-9-21)31-32-22-10-13-24(14-11-22)43(37,38)39;;/h1-17,33H,(H,30,36)(H,37,38,39)(H,40,41,42);;/q;2*+1/p-2/b32-31?,34-27-;;",OTPBDPKSNGORHR-ATQPHANLSA-L,[Na+].[Na+].[O-][S](=O)(=O)c1ccc(cc1)N=Nc2ccc(N\N=C\3C(=O)c4ccc(NC(=O)c5ccccc5)cc4C=C3[S]([O-])(=O)=O)cc2,-2.1566764475999998,0.0,1,G1,675.6120000000003,-1.1830999999999932,158.9227999999998,46.0,12.0,2.0,17.0,8.0,222.0,4.0,0.0,1.0,5.0,209.67999999999998,307.55103830735146,2.879995656331871e-06,2087.7330121306527
A-2888,sodium 7-amino-8-[(E)-2-[2-(benzenesulfonyl)phenyl]diazen-1-yl]-3-sulfonaphthalen-1-olate,"InChI=1S/C22H17N3O6S2.Na/c23-17-11-10-14-12-16(33(29,30)31)13-19(26)21(14)22(17)25-24-18-8-4-5-9-20(18)32(27,28)15-6-2-1-3-7-15;/h1-13,23-25H,(H,29,30,31);/q;+1/p-1",BGMJITJZTOJVQD-UHFFFAOYSA-M,[Na+].[O-][S](=O)(=O)C1=CC(=O)C2=C(NNc3ccccc3[S](=O)(=O)c4ccccc4)C(=N)C=CC2=C1,-2.0888316761000003,0.0,1,G1,505.5090000000002,-0.7782299999999964,119.85710000000003,34.0,9.0,3.0,12.0,6.0,168.0,2.0,0.0,2.0,4.0,156.32,217.95201153503038,3.2399949190582007e-06,1523.2219813917704
A-2889,bis(tetrakis(hydroxymethyl)phosphanium) sulfate,"InChI=1S/2C4H12O4P.H2O4S/c2*5-1-9(2-6,3-7)4-8;1-5(2,3)4/h2*5-8H,1-4H2;(H2,1,2,3,4)/q2*+1;/p-2",YIEDHPBKGZGLIK-UHFFFAOYSA-L,OC[P+](CO)(CO)CO.OC[P+](CO)(CO)CO.[O-][S]([O-])(=O)=O,1.9675126996,0.0,1,G1,406.28300000000013,-3.731599999999998,81.00100000000002,23.0,12.0,8.0,15.0,8.0,144.0,0.0,0.0,0.0,0.0,242.1,134.46041271226528,-2.7301587005687826e-07,293.05263615815124
A-2891,oxetan-2-one,InChI=1S/C3H4O2/c4-3-1-2-5-3/h1-2H2,VEZXCJBBBCKRPI-UHFFFAOYSA-N,O=C1CCO1,0.7104893861,0.0,1,G1,72.063,-0.06669999999999998,15.576,5.0,2.0,0.0,2.0,0.0,28.0,0.0,1.0,1.0,1.0,26.3,29.738371432644183,2.3224050495909916,51.91340299823497
A-2892,potassium {[(3-methylbutyl)sulfanyl]carbonyl}sulfanide,"InChI=1S/C6H12OS2.K/c1-5(2)3-4-7-6(8)9;/h5H,3-4H2,1-2H3,(H,8,9);/q;+1/p-1",CMXOFNZFIJEFDA-UHFFFAOYSA-M,[K+].CC(C)CCOC([S-])=S,0.23788972320000001,0.0,1,G1,202.385,-1.1151,45.370000000000026,10.0,3.0,0.0,4.0,3.0,54.0,0.0,0.0,0.0,0.0,9.23,116.11391843528865,0.0,95.74860596185444
A-2893,N-phenyl-N-(piperidin-4-yl)propanamide,"InChI=1S/C14H20N2O/c1-2-14(17)16(12-6-4-3-5-7-12)13-8-10-15-11-9-13/h3-7,13,15H,2,8-11H2,1H3/p+1",PMCBDBWCQQBSRJ-UHFFFAOYSA-O,CCC(=O)N(C1CC[NH2+]CC1)c2ccccc2,-0.8352255084,0.0,1,G1,233.33499999999998,1.1554,68.90040000000005,17.0,1.0,1.0,3.0,3.0,92.0,1.0,1.0,1.0,2.0,36.92,102.8163268349958,2.2116443428545427,357.7447760896648
A-2894,sodium 2-(morpholin-4-yl)ethane-1-sulfonate,"InChI=1S/C6H13NO4S.Na/c8-12(9,10)6-3-7-1-4-11-5-2-7;/h1-6H2,(H,8,9,10);/q;+1/p-1",IRHWMYKYLWNHTL-UHFFFAOYSA-M,[Na+].[O-][S](=O)(=O)CCN1CCOCC1,0.1885297454,0.0,1,G1,217.22199999999992,-4.1321999999999965,41.82320000000002,13.0,5.0,0.0,7.0,3.0,72.0,0.0,1.0,1.0,1.0,69.67,100.4735449787462,1.4399995212001628e-06,224.78875082024348
A-2895,"1,3-dihydroxypropan-2-yl octanoate 2,3-dihydroxypropyl octanoate","InChI=1S/C11H22O4/c1-2-3-4-5-6-7-11(14)15-9-10(13)8-12/h10,12-13H,2-9H2,1H3",GHBFNMLVSPCDGN-UHFFFAOYSA-N,CCCCCCCC(=O)OCC(O)CO,0.1794741305,0.0,1,G1,218.29299999999998,1.2433,57.42760000000005,15.0,4.0,2.0,4.0,9.0,90.0,0.0,0.0,0.0,0.0,66.76,91.25220700573831,3.257684303383024,158.66691118104077
A-2896,trisodium bis[2-hydroxy-5-nitro-3-[[2-oxo-1-[(phenylamino)carbonyl]propyl]azo]benzenesulphonato(3-)]cobaltate(3-),"InChI=1S/2C16H14N4O8S.Co.3Na/c2*1-9(21)14(16(23)17-10-5-3-2-4-6-10)19-18-12-7-11(20(24)25)8-13(15(12)22)29(26,27)28;;;;/h2*2-8H,1H3,(H4,17,18,19,21,22,23,26,27,28);;;;/q;;+3;3*+1/p-6",YZBZIKJBLDYACB-UHFFFAOYSA-H,[Na+].[Na+].[Na+].[Co+3].CC(=O)\C(=N/Nc1cc(cc(c1[O-])[S]([O-])(=O)=O)[N+]([O-])=O)C(=O)[N-]c2ccccc2.CC(=O)\C(=N/Nc3cc(cc(c3[O-])[S]([O-])(=O)=O)[N+]([O-])=O)C(=O)[N-]c4ccccc4,-0.47470402710000004,0.0,1,G1,966.6050000000001,-6.667700000000012,193.4245999999997,62.0,20.0,2.0,30.0,14.0,310.0,4.0,0.0,0.0,4.0,392.05999999999995,426.8164312722597,0.0,2430.1218443964162
A-2897,"disodium 4-amino-5-hydroxy-3-[(E)-2-(4-nitrophenyl)diazen-1-yl]-6-[(E)-2-phenyldiazen-1-yl]naphthalene-2,7-disulfonate","InChI=1S/C22H16N6O9S2.2Na/c23-19-18-12(11-17(39(35,36)37)21(22(18)29)27-24-13-4-2-1-3-5-13)10-16(38(32,33)34)20(19)26-25-14-6-8-15(9-7-14)28(30)31;;/h1-11,24H,23H2,(H,32,33,34)(H,35,36,37);;/q;2*+1/p-2/b26-25?,27-21+;;",HKBVRFLHNUEVRO-DWTBGCDMSA-L,[Na+].[Na+].Nc1c(N=Nc2ccc(cc2)[N+]([O-])=O)c(cc3C=C(\C(=N/Nc4ccccc4)C(=O)c13)[S]([O-])(=O)=O)[S]([O-])(=O)=O,-1.2800595004000002,0.0,1,G1,616.5010000000003,-2.944999999999994,135.5943999999999,41.0,14.0,2.0,19.0,7.0,200.0,3.0,0.0,1.0,4.0,249.73999999999998,276.4104841227516,2.939997127407122e-06,1829.1441111315776
A-2898,lithium(1+) ion benzoate,"InChI=1S/C7H6O2.Li/c8-7(9)6-4-2-1-3-5-6;/h1-5H,(H,8,9);/q;+1/p-1",LDJNSLOKTFFLSL-UHFFFAOYSA-M,[Li+].[O-]C(=O)c1ccccc1,0.3909106219,0.0,1,G1,128.05599999999995,-2.945899999999998,30.772499999999994,10.0,2.0,0.0,3.0,1.0,46.0,1.0,0.0,0.0,1.0,40.129999999999995,71.04966661206578,8.099998872750162e-07,208.1059085401538
A-2901,"3-[(1R,3R)-3-[(dimethylcarbamoylamino)methyl]-3,5,5-trimethylcyclohexyl]-1,1-dimethylurea","InChI=1S/C16H32N4O2/c1-15(2)8-12(18-14(22)20(6)7)9-16(3,10-15)11-17-13(21)19(4)5/h12H,8-11H2,1-7H3,(H,17,21)(H,18,22)/t12-,16+/m1/s1",UZEZQRZYPITAFY-WBMJQRKESA-N,CN(C)C(=O)NC[C@@]1(C)C[C@@H](CC(C)(C)C1)NC(=O)N(C)C,-1.8938187529,0.0,1,G1,312.458,2.1138,88.83140000000006,22.0,2.0,2.0,6.0,3.0,128.0,0.0,1.0,1.0,1.0,64.68,134.1499874979598,2.7301636775767912,420.36886868127584
A-2902,disodium 7-[(E)-2-(6-amino-1-hydroxy-3-sulfonatonaphthalen-2-yl)diazen-1-yl]-4-hydroxy-3-[(E)-2-phenyldiazen-1-yl]naphthalene-2-sulfonate,"InChI=1S/C26H19N5O8S2.2Na/c27-16-6-8-19-14(10-16)12-21(40(34,35)36)24(25(19)32)31-29-18-7-9-20-15(11-18)13-22(41(37,38)39)23(26(20)33)30-28-17-4-2-1-3-5-17;;/h1-13,28-29H,27H2,(H,34,35,36)(H,37,38,39);;/q;2*+1/p-2/b30-23-,31-24+;;",KNZOIDDFJVQVDM-NJXRNGNASA-L,[Na+].[Na+].Nc1ccc2C(=O)C(=N/Nc3ccc4C(=O)C(=N/Nc5ccccc5)\C(=Cc4c3)[S]([O-])(=O)=O)/C(=Cc2c1)[S]([O-])(=O)=O,-2.2101305551,0.0,1,G1,637.5630000000002,-3.6221999999999923,149.86319999999986,43.0,13.0,3.0,17.0,6.0,208.0,3.0,0.0,2.0,5.0,223.33999999999997,289.65190761738256,2.5312470776519397e-06,1992.3889755968814
A-2904,2-[(carbamoylmethyl)(carboxymethyl)amino]acetic acid,"InChI=1S/C6H10N2O5/c7-4(9)1-8(2-5(10)11)3-6(12)13/h1-3H2,(H2,7,9)(H,10,11)(H,12,13)/p-1",QZTKDVCDBIDYMD-UHFFFAOYSA-M,NC(=O)C[NH+](CC([O-])=O)CC([O-])=O,-1.7635818574000002,0.045806836599999956,2,G3,189.14699999999996,-6.1435999999999975,34.77210000000001,13.0,5.0,2.0,7.0,6.0,74.0,0.0,0.0,0.0,0.0,127.78999999999999,73.73671977155199,4.095996370610992,189.02540087437822
A-2906,calcium cyanoazanediide,InChI=1S/CH2N2.Ca/c2-1-3;/h2H2;/q;+2,STRTXDFFNXSZQB-UHFFFAOYSA-N,[Ca++].NC#N,-0.4460963217,0.0,1,G1,82.119,-0.95462,15.5544,4.0,2.0,1.0,3.0,0.0,16.0,0.0,0.0,0.0,0.0,49.81,54.587489401535166,0.0,27.509775004326936
A-2907,3-[(2-carboxyethyl)sulfanyl]propanoic acid,"InChI=1S/C6H10O4S/c7-5(8)1-3-11-4-2-6(9)10/h1-4H2,(H,7,8)(H,9,10)",ODJQKYXPKWQWNK-UHFFFAOYSA-N,OC(=O)CCSCCC(O)=O,-0.7991431977,0.05922159885,2,G3,178.209,0.669,41.83060000000002,11.0,3.0,2.0,5.0,6.0,64.0,0.0,0.0,0.0,0.0,74.6,68.59858332965739,3.0256083367235656,129.51770940319489
A-2908,N-Butylphosphorothioic triamide,"InChI=1S/C4H14N3PS/c1-2-3-4-7-8(5,6)9/h2-4H2,1H3,(H5,5,6,7,9)",HEPPIYNOUFWEPP-UHFFFAOYSA-N,CCCCN[P](N)(N)=S,-0.7730339165000001,0.43482510848450034,3,G5,167.218,0.518,45.57050000000001,9.0,1.0,3.0,5.0,4.0,56.0,0.0,0.0,0.0,0.0,64.07,61.3522664047582,3.1817722494383824,110.38037532843028
A-2910,"trisodium 5-({4-chloro-6-[(2-methylphenyl)amino]-1,3,5-triazin-2-yl}amino)-4-hydroxy-3-[(E)-2-(2-sulfonatophenyl)diazen-1-yl]naphthalene-2,7-disulfonate","InChI=1S/C26H20ClN7O10S3.3Na/c1-13-6-2-3-7-16(13)28-25-30-24(27)31-26(32-25)29-18-12-15(45(36,37)38)10-14-11-20(47(42,43)44)22(23(35)21(14)18)34-33-17-8-4-5-9-19(17)46(39,40)41;;;/h2-12,33H,1H3,(H,36,37,38)(H,39,40,41)(H,42,43,44)(H2,28,29,30,31,32);;;/q;3*+1/p-3/b34-22-;;;",GBFBZNVXLZXZMP-GTHSLJRASA-K,[Na+].[Na+].[Na+].Cc1ccccc1Nc2nc(Cl)nc(Nc3cc(cc4C=C(/C(=N/Nc5ccccc5[S]([O-])(=O)=O)C(=O)c34)[S]([O-])(=O)=O)[S]([O-])(=O)=O)n2,-0.4572403676,0.0,1,G1,788.0850000000003,-6.308680000000002,164.45419999999987,50.0,17.0,3.0,24.0,9.0,244.0,4.0,0.0,1.0,5.0,275.78999999999996,356.49684634890036,2.8899973675682432e-06,2382.369552508469
A-2911,hydrazine dihydrochloride,InChI=1S/ClH.H4N2/c;1-2/h1H;1-2H2,BIVUUOPIAYRCAP-UHFFFAOYSA-N,[H+].[Cl-].NN,1.5956288145,0.0,1,G1,68.507,-4.0647,9.4868,3.0,2.0,2.0,3.0,0.0,22.0,0.0,0.0,0.0,0.0,52.04,26.6621179497383,-4.9999999750000005e-09,6.0
A-2912,sodium 4-[(E)-2-(2-hydroxynaphthalen-1-yl)diazen-1-yl]benzene-1-sulfonate,"InChI=1S/C16H12N2O4S.Na/c19-15-10-5-11-3-1-2-4-14(11)16(15)18-17-12-6-8-13(9-7-12)23(20,21)22;/h1-10,19H,(H,20,21,22);/q;+1/p-1",CQPFMGBJSMSXLP-UHFFFAOYSA-M,[Na+].Oc1ccc2ccccc2c1N=Nc3ccc(cc3)[S]([O-])(=O)=O,-1.1158578961,0.0,1,G1,350.3310000000001,0.8689,84.19400000000002,24.0,6.0,1.0,8.0,3.0,116.0,3.0,0.0,0.0,3.0,102.15,160.45320908673392,2.0833316520152844e-06,1002.266076111682
A-2913,C.i. Direct blue 80,"InChI=1S/C32H22N4O16S4.2Cu.4Na/c37-25-11-15(1-7-23(25)33-35-29-21-5-3-19(53(41,42)43)9-17(21)13-27(31(29)39)55(47,48)49)16-2-8-24(26(38)12-16)34-36-30-22-6-4-20(54(44,45)46)10-18(22)14-28(32(30)40)56(50,51)52;;;;;;/h1-14,37-40H,(H,41,42,43)(H,44,45,46)(H,47,48,49)(H,50,51,52);;;;;;/q;2*+2;4*+1/p-8",FTGXCLZZPPMCHU-UHFFFAOYSA-F,[Na+].[Na+].[Na+].[Na+].[Cu++].[Cu++].[O-]c1cc(ccc1N=Nc2c([O-])c(cc3cc(ccc23)[S]([O-])(=O)=O)[S]([O-])(=O)=O)c4ccc(N=Nc5c([O-])c(cc6cc(ccc56)[S]([O-])(=O)=O)[S]([O-])(=O)=O)c([O-])c4,-1.6074287478,0.0,1,G1,1057.7960000000003,-9.587400000000018,177.76279999999983,62.0,20.0,0.0,30.0,9.0,308.0,6.0,0.0,0.0,6.0,370.47999999999996,461.39588857437326,6.201662432591865e-06,3007.718125128665
A-2915,"4-{2-[(2E)-5-[bis(propan-2-yl)amino]-3-methyl-2,3-dihydro-1,3,4-thiadiazol-2-ylidene]hydrazin-1-ylidene}-N,N-dimethylcyclohexa-2,5-dien-1-iminium methyl sulfate","InChI=1S/C17H27N6S.CH4O4S/c1-12(2)23(13(3)4)17-20-22(7)16(24-17)19-18-14-8-10-15(11-9-14)21(5)6;1-5-6(2,3)4/h8-13H,1-7H3;1H3,(H,2,3,4)/q+1;/p-1",MLTFWXODZCFGQN-UHFFFAOYSA-M,CO[S]([O-])(=O)=O.CC(C)N(C(C)C)c1sc(N=Nc2ccc(cc2)N(C)C)[n+](C)n1,-1.2596984381,0.0,1,G1,458.6100000000002,3.1652000000000013,117.69220000000006,30.0,10.0,0.0,12.0,7.0,168.0,2.0,0.0,0.0,2.0,114.39999999999999,182.3194642108622,6.562498979670311e-07,916.6532910108178