ID,Name,InChI,InChIKey,SMILES,Solubility,SD,Ocurrences,Group,MolWt,MolLogP,MolMR,HeavyAtomCount,NumHAcceptors,NumHDonors,NumHeteroatoms,NumRotatableBonds,NumValenceElectrons,NumAromaticRings,NumSaturatedRings,NumAliphaticRings,RingCount,TPSA,LabuteASA,BalabanJ,BertzCT
A-2644,1-(octyloxy)octane,"InChI=1S/C16H34O/c1-3-5-7-9-11-13-15-17-16-14-12-10-8-6-4-2/h3-16H2,1-2H3",NKJOXAZJBOMXID-UHFFFAOYSA-N,CCCCCCCCOCCCCCCCC,-6.3846168146,0.0,1,G1,242.44699999999992,5.724000000000006,77.57100000000007,17.0,1.0,0.0,1.0,14.0,104.0,0.0,0.0,0.0,0.0,9.23,109.32692797328555,2.846262262649495,108.69358616951132
A-2645,1-(vinyloxy)octadecane,"InChI=1S/C20H40O/c1-3-5-6-7-8-9-10-11-12-13-14-15-16-17-18-19-20-21-4-2/h4H,2-3,5-20H2,1H3",QJJDJWUCRAPCOL-UHFFFAOYSA-N,CCCCCCCCCCCCCCCCCCOC=C,-6.4720818187,1.1156809493500002,2,G2,296.53899999999993,7.4080000000000075,95.69500000000008,21.0,1.0,0.0,1.0,18.0,126.0,0.0,0.0,0.0,0.0,9.23,134.09709339868778,2.9147438317396728,188.27743573731465
A-2646,"2-(3,4-dihydroxyoxolan-2-yl)-2-hydroxyethyl 3-methylheptadecanoate","InChI=1S/C18H36O2.C5H12O6/c1-17(2)15-13-11-9-7-5-3-4-6-8-10-12-14-16-18(19)20;6-1-2(7)3(8)4(9)5(10)11/h17H,3-16H2,1-2H3,(H,19,20);2-11H,1H2/t;2-,3+,4-/m.0/s1",DAPHOROYFQLVHF-DAPNYWPISA-N,CC(C)CCCCCCCCCCCCCCC(O)=O.OC[C@H](O)[C@@H](O)[C@H](O)C(O)O,-6.6557423758,0.0,1,G1,452.629,2.5605,120.44360000000007,31.0,7.0,7.0,8.0,19.0,188.0,0.0,0.0,0.0,0.0,158.68,187.49496706349998,0.0,389.7727607365283
A-2647,"2-ethylhexyl 2-cyano-3,3-diphenylprop-2-enoate","InChI=1S/C24H27NO2/c1-3-5-12-19(4-2)18-27-24(26)22(17-25)23(20-13-8-6-9-14-20)21-15-10-7-11-16-21/h6-11,13-16,19H,3-5,12,18H2,1-2H3",FMJSMJQBSVNSBF-UHFFFAOYSA-N,CCCCC(CC)COC(=O)C(C#N)=C(c1ccccc1)c2ccccc2,-6.5580902807,0.0,1,G1,361.485,5.771680000000005,108.78400000000003,27.0,3.0,0.0,3.0,9.0,140.0,2.0,0.0,0.0,2.0,50.09,161.84584667715538,2.3340701562538846,746.6358153488318
A-2648,"2-fluoro-4-[4-(4-propylcyclohexyl)cyclohexyl]-1-(3,4,5-trifluorophenyl)benzene","InChI=1S/C27H32F4/c1-2-3-17-4-6-18(7-5-17)19-8-10-20(11-9-19)21-12-13-23(24(28)14-21)22-15-25(29)27(31)26(30)16-22/h12-20H,2-11H2,1H3",RHJZNALCKPDGPQ-UHFFFAOYSA-N,CCCC1CCC(CC1)C2CCC(CC2)c3ccc(c(F)c3)c4cc(F)c(F)c(F)c4,-6.6360312962,0.0,1,G1,432.5450000000001,8.790300000000002,116.76500000000009,31.0,0.0,0.0,4.0,5.0,168.0,2.0,2.0,2.0,4.0,0.0,182.6131083461566,1.3782994523104823,867.0997138051093
A-2649,2-octyldodecan-1-ol,"InChI=1S/C20H42O/c1-3-5-7-9-11-12-14-16-18-20(19-21)17-15-13-10-8-6-4-2/h20-21H,3-19H2,1-2H3",LEACJMVNYZDSKR-UHFFFAOYSA-N,CCCCCCCCCCC(CO)CCCCCCCC,-6.4750243489,0.0,1,G1,298.555,6.8763000000000085,95.79580000000009,21.0,1.0,1.0,1.0,17.0,128.0,0.0,0.0,0.0,0.0,20.23,134.46738495356115,3.284224046417563,178.67722777610123
A-2650,Naphthalic anhydride,InChI=1S/C12H6O3/c13-11-8-5-1-3-7-4-2-6-9(10(7)8)12(14)15-11/h1-6H,GRSMWKLPSNHDHA-UHFFFAOYSA-N,O=C1OC(=O)c2cccc3cccc1c23,-6.2970532498,0.0,1,G1,198.17699999999996,2.1504000000000003,53.69400000000002,15.0,3.0,0.0,3.0,0.0,72.0,2.0,0.0,1.0,3.0,43.370000000000005,85.27371015609056,2.5596903090526832,550.0887631010164
A-2651,"3-{[3-(3,5-di-tert-butyl-4-hydroxyphenyl)propanoyl]oxy}-2,2-bis({[3-(3,5-di-tert-butyl-4-hydroxyphenyl)propanoyl]oxy}methyl)propyl 3-(3,5-di-tert-butyl-4-hydroxyphenyl)propanoate","InChI=1S/C73H108O12/c1-65(2,3)49-33-45(34-50(61(49)78)66(4,5)6)25-29-57(74)82-41-73(42-83-58(75)30-26-46-35-51(67(7,8)9)62(79)52(36-46)68(10,11)12,43-84-59(76)31-27-47-37-53(69(13,14)15)63(80)54(38-47)70(16,17)18)44-85-60(77)32-28-48-39-55(71(19,20)21)64(81)56(40-48)72(22,23)24/h33-40,78-81H,25-32,41-44H2,1-24H3",BGYHLZZASRKEJE-UHFFFAOYSA-N,CC(C)(C)c1cc(CCC(=O)OCC(COC(=O)CCc2cc(c(O)c(c2)C(C)(C)C)C(C)(C)C)(COC(=O)CCc3cc(c(O)c(c3)C(C)(C)C)C(C)(C)C)COC(=O)CCc4cc(c(O)c(c4)C(C)(C)C)C(C)(C)C)cc(c1O)C(C)(C)C,-7.0710180803,0.0,1,G1,1177.6549999999986,15.879199999999962,341.5802000000007,85.0,12.0,4.0,12.0,20.0,472.0,4.0,0.0,0.0,4.0,186.11999999999998,510.76205367010937,1.764294571544901,2473.40153990411
A-2652,"4-(2,4,4-trimethylpentan-2-yl)-N-[4-(2,4,4-trimethylpentan-2-yl)phenyl]aniline","InChI=1S/C28H43N/c1-25(2,3)19-27(7,8)21-11-15-23(16-12-21)29-24-17-13-22(14-18-24)28(9,10)20-26(4,5)6/h11-18,29H,19-20H2,1-10H3",GQBHYWDCHSZDQU-UHFFFAOYSA-N,CC(C)(C)CC(C)(C)c1ccc(Nc2ccc(cc2)C(C)(C)CC(C)(C)C)cc1,-6.5951201849,0.0,1,G1,393.6590000000002,8.857800000000003,130.36270000000007,29.0,1.0,1.0,1.0,6.0,160.0,2.0,0.0,0.0,2.0,12.03,179.8774333395148,2.091567019404517,708.6928454198212
A-2656,8-ethyl-9-methylheptadecane; 8-methyl-7-propylhexadecane,"InChI=1S/2C20H42/c1-5-8-10-12-13-14-17-19(4)20(16-7-3)18-15-11-9-6-2;1-5-8-10-12-14-15-17-19(4)20(7-3)18-16-13-11-9-6-2/h2*19-20H,5-18H2,1-4H3",BWQCJPOGHSLKTK-UHFFFAOYSA-N,CCCCCCCCC(C)C(CC)CCCCCCC.CCCCCCCCC(C)C(CCC)CCCCCC,-6.7521345295,0.0,1,G1,565.1120000000003,15.519599999999961,188.6279999999994,40.0,0.0,0.0,0.0,30.0,244.0,0.0,0.0,0.0,0.0,0.0,257.9778246428266,0.0,425.7542475909892
A-2657,"N-[2-(2-heptadecyl-4,5-dihydro-1H-imidazol-1-yl)ethyl]octadecanamide; N-{2-[(2-octadecanamidoethyl)amino]ethyl}octadecanamide; bis(acetic acid)","InChI=1S/C40H81N3O2.C40H79N3O.2C2H4O2/c1-3-5-7-9-11-13-15-17-19-21-23-25-27-29-31-33-39(44)42-37-35-41-36-38-43-40(45)34-32-30-28-26-24-22-20-18-16-14-12-10-8-6-4-2;1-3-5-7-9-11-13-15-17-19-21-23-25-27-29-31-33-39-41-35-37-43(39)38-36-42-40(44)34-32-30-28-26-24-22-20-18-16-14-12-10-8-6-4-2;2*1-2(3)4/h41H,3-38H2,1-2H3,(H,42,44)(H,43,45);3-38H2,1-2H3,(H,42,44);2*1H3,(H,3,4)",VGSJTKYUFRVBDY-UHFFFAOYSA-N,CCCCCCCCCCCCCCCCCC(=O)NCCNCCNC(=O)CCCCCCCCCCCCCCCCC.CCCCCCCCCCCCCCCCCC(=O)NCCN1CCN=C1CCCCCCCCCCCCCCCCC.CC(O)=O.CC(O)=O,-7.138082494500001,0.0,1,G1,1374.3029999999987,23.852900000000023,420.5774000000018,97.0,8.0,6.0,13.0,73.0,576.0,0.0,0.0,1.0,1.0,189.52999999999997,602.2917917249126,-1.6364069577542448e-06,1579.7409671025232
A-2658,N-[3-(dimethylamino)propyl]docosanamide,"InChI=1S/C27H56N2O/c1-4-5-6-7-8-9-10-11-12-13-14-15-16-17-18-19-20-21-22-24-27(30)28-25-23-26-29(2)3/h4-26H2,1-3H3,(H,28,30)",MNAZHGAWPCLLGX-UHFFFAOYSA-N,CCCCCCCCCCCCCCCCCCCCCC(=O)NCCCN(C)C,-6.6281415672,0.9771212547000001,2,G2,424.7580000000002,7.876200000000009,134.19470000000004,30.0,2.0,1.0,3.0,24.0,180.0,0.0,0.0,0.0,0.0,32.34,189.69896395599662,3.099998932756766,343.75476718749985
A-2659,"Octadecan-1-ol, ethoxylated","InChI=1S/C20H41O2/c1-2-3-4-5-6-7-8-9-10-11-12-13-14-15-16-17-19-22-20-18-21/h2-20H2,1H3",PSEGVHKUPXNGGJ-UHFFFAOYSA-N,CCCCCCCCCCCCCCCCCCOCC[O],-6.4963012647000005,0.0,1,G1,313.546,6.695000000000007,95.9185000000001,22.0,1.0,0.0,2.0,19.0,133.0,0.0,0.0,0.0,0.0,29.13,139.58093018306803,2.9121609469850025,162.54605750776778
A-2661,Talc (Mg3H2(SiO3)4),InChI=1S/3Mg.2HO3Si.2O3Si/c;;;4*1-4(2)3/h;;;2*1H;;/q3*+2;2*-1;2*-2,KNXVOGGZOFOROK-UHFFFAOYSA-N,[Mg++].[Mg++].[Mg++].O[Si]([O-])=O.O[Si]([O-])=O.[O-][Si]([O-])=O.[O-][Si]([O-])=O,-6.5789404760000005,0.0,1,G1,379.2630000000001,-11.3888,47.461600000000004,19.0,10.0,2.0,19.0,0.0,96.0,0.0,0.0,0.0,0.0,247.1,160.35979429588824,-1.919999995733334e-08,165.0143852792263
A-2662,"[phenyl(2,4,6-trimethylbenzoyl)phosphoryl](2,4,6-trimethylphenyl)methanone","InChI=1S/C26H27O3P/c1-16-12-18(3)23(19(4)13-16)25(27)30(29,22-10-8-7-9-11-22)26(28)24-20(5)14-17(2)15-21(24)6/h7-15H,1-6H3",GUCYFKSBFREPBC-UHFFFAOYSA-N,Cc1cc(C)c(c(C)c1)C(=O)[P](=O)(C(=O)c2c(C)cc(C)cc2C)c3ccccc3,-6.6216674424,0.0,1,G1,418.4730000000001,6.206320000000007,123.64950000000002,30.0,3.0,0.0,4.0,5.0,154.0,3.0,0.0,0.0,3.0,51.21,178.07777254697876,2.3110006484735344,1086.6935180862567
A-2663,dialuminium(3+) ion dicalcium pentaoxidandiide,InChI=1S/2Al.2Ca.5O/q2*+3;2*+2;5*-2,HGCYUAJUOYGULZ-UHFFFAOYSA-N,[O--].[O--].[O--].[O--].[O--].[Al+3].[Al+3].[Ca++].[Ca++],-6.3306470932000005,0.0,1,G1,214.115,-2.1172,26.448499999999996,9.0,0.0,0.0,9.0,0.0,40.0,0.0,0.0,0.0,0.0,142.5,134.75080687639738,-0.0,12.919684538544
A-2664,dimethoxybis(propan-2-yl)silane,"InChI=1S/C8H20O2Si/c1-7(2)11(9-5,10-6)8(3)4/h7-8H,1-6H3",VHPUZTHRFWIGAW-UHFFFAOYSA-N,CO[Si](OC)(C(C)C)C(C)C,-6.2463311334,0.0,1,G1,176.332,2.5414000000000003,49.96800000000003,11.0,2.0,0.0,3.0,4.0,68.0,0.0,0.0,0.0,0.0,18.46,71.14858059081317,4.4645094480190135,98.65968562262317
A-2665,dodecanoyl dodecaneperoxoate,"InChI=1S/C24H46O4/c1-3-5-7-9-11-13-15-17-19-21-23(25)27-28-24(26)22-20-18-16-14-12-10-8-6-4-2/h3-22H2,1-2H3",YIVJZNGAASQVEM-UHFFFAOYSA-N,CCCCCCCCCCCC(=O)OOC(=O)CCCCCCCCCCC,-6.6005678007,0.23856062735000005,2,G3,398.6280000000004,7.829600000000009,115.8720000000001,28.0,4.0,0.0,4.0,20.0,166.0,0.0,0.0,0.0,0.0,52.6,173.6123496337912,3.3171020835488734,320.51431100532824
A-2666,octyl (2R)-2-(4-chloro-2-methylphenoxy)propanoate,"InChI=1S/C18H27ClO3/c1-4-5-6-7-8-9-12-21-18(20)15(3)22-17-11-10-16(19)13-14(17)2/h10-11,13,15H,4-9,12H2,1-3H3/t15-/m1/s1",QWQMRXFSCXUHMR-OAHLLOKOSA-N,CCCCCCCCOC(=O)[C@@H](C)Oc1ccc(Cl)cc1C,-6.5143670911000005,0.0,1,G1,326.86400000000003,5.319420000000005,90.61400000000006,22.0,3.0,0.0,4.0,10.0,124.0,1.0,0.0,0.0,1.0,35.53,138.50258727819548,2.242455437207009,459.6455324520554
A-2667,silver cyanide,InChI=1S/CN.Ag/c1-2;/q-1;+1,LFAGQMCIGQNPJG-UHFFFAOYSA-N,[Ag+].[C-]#N,-6.1267351667,0.9793036574,2,G2,133.886,0.09387,4.968,3.0,1.0,0.0,2.0,0.0,20.0,0.0,0.0,0.0,0.0,23.79,34.76523356259193,0.0,9.509775004326936
A-2668,titanium(2+) ion dihydride,InChI=1S/Ti.2H/q+2;2*-1,KAZWGWWZKAHTKC-UHFFFAOYSA-N,[Ti++].[H-].[H-],-5.6979525644,0.0,1,G1,49.883,0.2225,2.224,1.0,0.0,0.0,1.0,0.0,6.0,0.0,0.0,0.0,0.0,0.0,25.34420811341678,-0.0,2.7548875021634682
A-2669,titanium(4+) ion bis(oxosilanebis(olate)),InChI=1S/2O3Si.Ti/c2*1-4(2)3;/q2*-2;+4,LMYUVIRTIDGPBO-UHFFFAOYSA-N,[Ti+4].[O-][Si]([O-])=O.[O-][Si]([O-])=O,-6.3011016483,0.0,1,G1,200.03299999999996,-5.757700000000001,12.880999999999998,9.0,6.0,0.0,9.0,0.0,48.0,0.0,0.0,0.0,0.0,126.38,68.46542593027354,-7.199999951999999e-08,69.05865002596163
A-2673,"2,2-bis[(nonanoyloxy)methyl]butyl nonanoate","InChI=1S/C33H62O6/c1-5-9-12-15-18-21-24-30(34)37-27-33(8-4,28-38-31(35)25-22-19-16-13-10-6-2)29-39-32(36)26-23-20-17-14-11-7-3/h5-29H2,1-4H3",KDMAJIXYCNOVJB-UHFFFAOYSA-N,CCCCCCCCC(=O)OCC(CC)(COC(=O)CCCCCCCC)COC(=O)CCCCCCCC,-6.8410879515,0.0,1,G1,554.8530000000005,9.264200000000002,159.5799999999997,39.0,6.0,0.0,6.0,28.0,230.0,0.0,0.0,0.0,0.0,78.9,240.24260067717304,4.727341056046071,524.1685487423665
A-2674,"2,5-bis(1,1-dimethylpropyl)benzene-1,4-diol","InChI=1S/C16H26O2/c1-7-15(3,4)11-9-14(18)12(10-13(11)17)16(5,6)8-2/h9-10,17-18H,7-8H2,1-6H3",CZNRFEXEPBITDS-UHFFFAOYSA-N,CCC(C)(C)c1cc(O)c(cc1O)C(C)(C)CC,-6.495513117200001,0.0,1,G1,250.38199999999995,4.473000000000004,76.40560000000006,18.0,2.0,2.0,2.0,4.0,102.0,1.0,0.0,0.0,1.0,40.46,110.66929176785507,3.379425183237454,389.2182552927973
A-2675,diiron(3+) ion distrontium(2+) ion pentaoxidandiide,InChI=1S/2Fe.5O.2Sr/q2*+3;5*-2;2*+2,GKHGYOYJUWWDJG-UHFFFAOYSA-N,[O--].[O--].[O--].[O--].[O--].[Fe+3].[Fe+3].[Sr++].[Sr++],-6.6614873159000005,0.0,1,G1,366.925,-1.3605999999999998,14.940499999999998,9.0,0.0,0.0,9.0,0.0,50.0,0.0,0.0,0.0,0.0,142.5,148.73947701600153,-0.0,12.919684538544
A-2676,zirconium dihydride,InChI=1S/Zr.2H/q+2;2*-1,IUJYJRCMJZIAJY-UHFFFAOYSA-N,[H-].[H-].[Zr++],-6.066512277899999,0.0,1,G1,93.24000000000001,0.2225,2.224,1.0,0.0,0.0,1.0,0.0,6.0,0.0,0.0,0.0,0.0,0.0,29.586332089485616,-0.0,2.7548875021634682
A-2677,"10,13-dimethyl-17-(2-methyl-1,3-dioxolan-2-yl)-1,2,4,9,10,11,12,13,14,15,16,17-dodecahydrospiro[cyclopenta[a]phenanthrene-3,2'-[1,3]dioxolane]","InChI=1S/C25H36O4/c1-22-10-11-25(28-14-15-29-25)16-17(22)4-5-18-19-6-7-21(24(3)26-12-13-27-24)23(19,2)9-8-20(18)22/h4-5,19-21H,6-16H2,1-3H3",CFZNXPSHLNMZGD-UHFFFAOYSA-N,CC1(OCCO1)C2CCC3C4=CC=C5CC6(CCC5(C)C4CCC23C)OCCO6,-6.7001197149000005,0.0,1,G1,400.55900000000025,4.991600000000005,110.11300000000006,29.0,4.0,0.0,4.0,1.0,160.0,0.0,5.0,6.0,6.0,36.92,174.5378497058318,1.326371087356619,756.7850441143315
A-2678,"[(1S,2R,5S)-5-methyl-2-propan-2-ylcyclohexyl] acetate","InChI=1S/C12H22O2/c1-8(2)11-6-5-9(3)7-12(11)14-10(4)13/h8-9,11-12H,5-7H2,1-4H3/t9-,11+,12-/m0/s1",XHXUANMFYXWVNG-WCQGTBRESA-N,CC(C)[C@H]1CC[C@H](C)C[C@@H]1OC(C)=O,-4.0668869332,0.0,1,G1,198.30599999999998,3.0103000000000018,56.89700000000005,14.0,2.0,0.0,2.0,2.0,82.0,0.0,1.0,1.0,1.0,26.3,87.02285046221364,2.5834409878142726,198.49841012019365
A-2680,Ciaftalan zinc,InChI=1S/C32H16N8.Zn/c1-2-10-18-17(9-1)25-33-26(18)38-28-21-13-5-6-14-22(21)30(35-28)40-32-24-16-8-7-15-23(24)31(36-32)39-29-20-12-4-3-11-19(20)27(34-29)37-25;/h1-16H;/q-2;+2,PODBBOVVOGJETB-UHFFFAOYSA-N,[Zn++].[n-]1c2nc3[n-]c(nc4nc(nc5nc(nc1c6ccccc26)c7ccccc57)c8ccccc48)c9ccccc39,-6.9837209827999995,0.0,1,G1,577.9260000000002,6.124900000000005,153.99199999999973,41.0,6.0,0.0,9.0,0.0,186.0,7.0,0.0,2.0,9.0,105.54,244.9640246012375,2.5599960348507047e-06,2192.8910969631343
A-2681,2-{[2-(acetyloxy)ethyl]({4-[(E)-2-(2-chloro-4-nitrophenyl)diazen-1-yl]-3-acetamidophenyl})amino}ethyl acetate,"InChI=1S/C22H24ClN5O7/c1-14(29)24-22-13-17(27(8-10-34-15(2)30)9-11-35-16(3)31)4-7-21(22)26-25-20-6-5-18(28(32)33)12-19(20)23/h4-7,12-13H,8-11H2,1-3H3,(H,24,29)",ORDDDNUMJXPGOC-UHFFFAOYSA-N,CC(=O)Nc1cc(ccc1N=Nc2ccc(cc2Cl)[N+]([O-])=O)N(CCOC(C)=O)CCOC(C)=O,-6.963714866599999,0.0,1,G1,505.9150000000004,4.554600000000004,128.50710000000007,35.0,10.0,1.0,13.0,11.0,186.0,2.0,0.0,0.0,2.0,152.79999999999998,205.56229087635413,2.332903257014509,1119.1728361137355
A-2684,"(2R)-2-[(2R,3R,4S)-3,4-bis(octadecanoyloxy)oxolan-2-yl]-2-hydroxyethyl octadecanoate (2R)-2-[(2R,3R,4S)-3,4-dihydroxyoxolan-2-yl]-2-hydroxyethyl octadecanoate (2R)-2-hydroxy-2-[(2R,3R,4S)-3-hydroxy-4-(octadecanoyloxy)oxolan-2-yl]ethyl (9Z)-octadec-9-enoate","InChI=1S/C60H114O8/c1-4-7-10-13-16-19-22-25-28-31-34-37-40-43-46-49-56(62)65-53-55(67-57(63)50-47-44-41-38-35-32-29-26-23-20-17-14-11-8-5-2)60-59(54(61)52-66-60)68-58(64)51-48-45-42-39-36-33-30-27-24-21-18-15-12-9-6-3/h54-55,59-61H,4-53H2,1-3H3/t54-,55?,59+,60-/m1/s1",IJCWFDPJFXGQBN-BIFNRIDTSA-N,CCCCCCCCCCCCCCCCCC(=O)OCC(OC(=O)CCCCCCCCCCCCCCCCC)[C@H]1OC[C@@H](O)[C@@H]1OC(=O)CCCCCCCCCCCCCCCCC,-7.284910561499999,0.0,1,G1,963.563999999999,17.897399999999976,285.10379999999924,68.0,8.0,1.0,8.0,53.0,402.0,0.0,1.0,1.0,1.0,108.36000000000001,420.9979855940546,2.4515708956110815,1097.443364495343
A-2685,"(2R)-2-[(2R,3R,4S)-3,4-dihydroxyoxolan-2-yl]-2-hydroxyethyl hexadecanoate","InChI=1S/C22H42O6/c1-2-3-4-5-6-7-8-9-10-11-12-13-14-15-20(25)27-17-19(24)22-21(26)18(23)16-28-22/h18-19,21-24,26H,2-17H2,1H3/t18-,19?,21+,22-/m1/s1",IYFATESGLOUGBX-CBOZIWPYSA-N,CCCCCCCCCCCCCCCC(=O)OCC(O)[C@H]1OC[C@@H](O)[C@@H]1O,-6.9058735609,0.0,1,G1,402.57200000000006,3.492400000000002,109.03140000000008,28.0,6.0,3.0,6.0,17.0,166.0,0.0,1.0,1.0,1.0,96.22000000000001,170.16851809227467,1.8636903065557138,389.223267307112
A-2687,"1,2,4-tris(2-methyldodecyl) benzene-1,2,4-tricarboxylate","InChI=1S/C48H84O6/c1-40(2)31-25-19-13-7-10-16-22-28-36-52-46(49)43-34-35-44(47(50)53-37-29-23-17-11-8-14-20-26-32-41(3)4)45(39-43)48(51)54-38-30-24-18-12-9-15-21-27-33-42(5)6/h34-35,39-42H,7-33,36-38H2,1-6H3",IGQFKXMQIMEIJV-UHFFFAOYSA-N,CC(C)CCCCCCCCCCOC(=O)c1ccc(C(=O)OCCCCCCCCCCC(C)C)c(c1)C(=O)OCCCCCCCCCCC(C)C,-7.180237159600001,0.0,1,G1,757.1939999999997,14.657699999999968,226.46249999999895,54.0,6.0,0.0,6.0,36.0,312.0,1.0,0.0,0.0,1.0,78.90000000000002,332.5841739128063,2.553093508669711,1076.9726124269114
A-2688,"1,3-bis(heptanoyloxy)propan-2-yl heptanoate","InChI=1S/C24H44O6/c1-4-7-10-13-16-22(25)28-19-21(30-24(27)18-15-12-9-6-3)20-29-23(26)17-14-11-8-5-2/h21H,4-20H2,1-3H3",PJHKBYALYHRYSK-UHFFFAOYSA-N,CCCCCCC(=O)OCC(COC(=O)CCCCCC)OC(=O)CCCCCC,-6.9330922951,0.0,1,G1,428.61000000000035,5.895800000000007,118.07500000000009,30.0,6.0,0.0,6.0,20.0,176.0,0.0,0.0,0.0,0.0,78.9,182.95812164760352,4.366932677912136,420.9771072253038
A-2689,"1,3-bis[(12-hydroxyoctadecanoyl)oxy]propan-2-yl 12-hydroxyoctadecanoate","InChI=1S/C57H110O9/c1-4-7-10-31-40-51(58)43-34-25-19-13-16-22-28-37-46-55(61)64-49-54(66-57(63)48-39-30-24-18-15-21-27-36-45-53(60)42-33-12-9-6-3)50-65-56(62)47-38-29-23-17-14-20-26-35-44-52(59)41-32-11-8-5-2/h51-54,58-60H,4-50H2,1-3H3",WCOXQTXVACYMLM-UHFFFAOYSA-N,CCCCCCC(O)CCCCCCCCCCC(=O)OCC(COC(=O)CCCCCCCCCCC(O)CCCCCC)OC(=O)CCCCCCCCCCC(O)CCCCCC,-7.273925855599999,0.0,1,G1,939.4979999999991,15.681499999999962,274.60539999999907,66.0,9.0,3.0,9.0,53.0,392.0,0.0,0.0,0.0,0.0,139.59,407.38391267927915,4.407028857851193,983.434451239265
A-2690,"1,3-bis[(2-ethylhexanoyl)oxy]propan-2-yl 2-ethylhexanoate","InChI=1S/C27H50O6/c1-7-13-16-21(10-4)25(28)31-19-24(33-27(30)23(12-6)18-15-9-3)20-32-26(29)22(11-5)17-14-8-2/h21-24H,7-20H2,1-6H3",DGSZGZSCHSQXFV-UHFFFAOYSA-N,CCCCC(CC)C(=O)OCC(COC(=O)C(CC)CCCC)OC(=O)C(CC)CCCC,-6.97376589,0.0,1,G1,470.69100000000043,6.633800000000008,131.71600000000007,33.0,6.0,0.0,6.0,20.0,194.0,0.0,0.0,0.0,0.0,78.9,202.05294799079334,5.113091319340741,500.70462043378626
A-2691,"1,3-bis[(9Z)-octadec-9-enoyloxy]propan-2-yl (9Z)-octadec-9-enoate","InChI=1S/C57H104O6/c1-4-7-10-13-16-19-22-25-28-31-34-37-40-43-46-49-55(58)61-52-54(63-57(60)51-48-45-42-39-36-33-30-27-24-21-18-15-12-9-6-3)53-62-56(59)50-47-44-41-38-35-32-29-26-23-20-17-14-11-8-5-2/h25-30,54H,4-24,31-53H2,1-3H3/b28-25-,29-26-,30-27-",PHYFQTYBJUILEZ-IUPFWZBJSA-N,CCCCCCCC\C=C/CCCCCCCC(=O)OCC(COC(=O)CCCCCCC\C=C/CCCCCCCC)OC(=O)CCCCCCC\C=C/CCCCCCCC,-7.2481955094,0.0,1,G1,885.4529999999991,18.097099999999976,270.15399999999903,63.0,6.0,0.0,6.0,50.0,368.0,0.0,0.0,0.0,0.0,78.9,390.93240232613846,4.3925230027209015,1006.8406749723667
A-2692,"1,6-bis(2-methylheptyl) hexanedioate","InChI=1S/C22H42O4/c1-19(2)13-7-5-11-17-25-21(23)15-9-10-16-22(24)26-18-12-6-8-14-20(3)4/h19-20H,5-18H2,1-4H3",CJFLBOQMPJCWLR-UHFFFAOYSA-N,CC(C)CCCCCOC(=O)CCCCC(=O)OCCCCCC(C)C,-6.869904941000001,0.0,1,G1,370.57400000000024,6.066000000000007,106.99800000000009,26.0,4.0,0.0,4.0,17.0,154.0,0.0,0.0,0.0,0.0,52.60000000000001,160.95317008925966,3.3585678203557756,316.051410266671
A-2693,1-(octadecyloxy)octadecane,"InChI=1S/C36H74O/c1-3-5-7-9-11-13-15-17-19-21-23-25-27-29-31-33-35-37-36-34-32-30-28-26-24-22-20-18-16-14-12-10-8-6-4-2/h3-36H2,1-2H3",HBXWUCXDUUJDRB-UHFFFAOYSA-N,CCCCCCCCCCCCCCCCCCOCCCCCCCCCCCCCCCCCC,-7.0195208893,0.0,1,G1,522.9870000000006,13.525999999999975,169.9109999999996,37.0,1.0,0.0,1.0,34.0,224.0,0.0,0.0,0.0,0.0,9.23,236.62577026121784,3.0041568321208016,331.68228566249553
A-2694,"2,2-bis[(heptanoyloxy)methyl]butyl heptanoate (non-preferred name)","InChI=1S/C27H50O6/c1-5-9-12-15-18-24(28)31-21-27(8-4,22-32-25(29)19-16-13-10-6-2)23-33-26(30)20-17-14-11-7-3/h5-23H2,1-4H3",UQJDVLPHTXQTRP-UHFFFAOYSA-N,CCCCCCC(=O)OCC(CC)(COC(=O)CCCCCC)COC(=O)CCCCCC,-6.97376589,0.0,1,G1,470.6910000000005,6.923600000000008,131.87800000000007,33.0,6.0,0.0,6.0,22.0,194.0,0.0,0.0,0.0,0.0,78.9,202.05294799079334,4.781939646493263,447.4176558008815
A-2695,"2,2-dimethyl-3-[(9Z)-octadec-9-enoyloxy]propyl (9Z)-octadec-9-enoate","InChI=1S/C41H76O4/c1-5-7-9-11-13-15-17-19-21-23-25-27-29-31-33-35-39(42)44-37-41(3,4)38-45-40(43)36-34-32-30-28-26-24-22-20-18-16-14-12-10-8-6-2/h19-22H,5-18,23-38H2,1-4H3/b21-19-,22-20-",AMZKGJLFYCZDMJ-WRBBJXAJSA-N,CCCCCCCC\C=C/CCCCCCCC(=O)OCC(C)(C)COC(=O)CCCCCCC\C=C/CCCCCCCC,-7.102471438899999,0.0,1,G1,633.055,13.173999999999976,194.60299999999927,45.0,4.0,0.0,4.0,34.0,264.0,0.0,0.0,0.0,0.0,52.6,280.50786419842666,3.5773999806155956,650.300628618516
A-2696,"2,2-dimethylpropane-1,3-diyl dioctanoate","InChI=1S/C21H40O4/c1-5-7-9-11-13-15-19(22)24-17-21(3,4)18-25-20(23)16-14-12-10-8-6-2/h5-18H2,1-4H3",WFXHUBZUIFLWCV-UHFFFAOYSA-N,CCCCCCCC(=O)OCC(C)(C)COC(=O)CCCCCCC,-6.8531467823000005,0.8313789158500002,2,G2,356.54700000000025,5.8200000000000065,102.45100000000008,25.0,4.0,0.0,4.0,16.0,148.0,0.0,0.0,0.0,0.0,52.6,154.58822797486303,3.740300634776958,317.8052120710372