ID,Name,InChI,InChIKey,SMILES,Solubility,SD,Ocurrences,Group,MolWt,MolLogP,MolMR,HeavyAtomCount,NumHAcceptors,NumHDonors,NumHeteroatoms,NumRotatableBonds,NumValenceElectrons,NumAromaticRings,NumSaturatedRings,NumAliphaticRings,RingCount,TPSA,LabuteASA,BalabanJ,BertzCT
A-2183,"1,3-dimethyl 5-[(E)-2-{2-oxo-1-[(2-oxo-2,3-dihydro-1H-1,3-benzodiazol-5-yl)carbamoyl]propyl}diazen-1-yl]benzene-1,3-dicarboxylate","InChI=1S/C21H19N5O7/c1-10(27)17(18(28)22-13-4-5-15-16(9-13)24-21(31)23-15)26-25-14-7-11(19(29)32-2)6-12(8-14)20(30)33-3/h4-9,17H,1-3H3,(H,22,28)(H2,23,24,31)",IHRACTUONPFMSI-UHFFFAOYSA-N,COC(=O)c1cc(cc(c1)C(=O)OC)N=NC(C(C)=O)C(=O)Nc2ccc3NC(=O)Nc3c2,-6.3777384512,0.0,1,G1,453.4110000000002,2.1093999999999995,115.65510000000002,33.0,9.0,3.0,12.0,7.0,170.0,3.0,0.0,0.0,3.0,172.14,185.54984816175954,1.8696961800407865,1304.0172082492545
A-2184,"5,7-dihydroxy-2-(3-hydroxy-4-methoxyphenyl)-4H-chromen-4-one","InChI=1S/C16H12O6/c1-21-13-3-2-8(4-10(13)18)14-7-12(20)16-11(19)5-9(17)6-15(16)22-14/h2-7,17-19H,1H3",MBNGWHIJMBWFHU-UHFFFAOYSA-N,COc1ccc(cc1O)C2=CC(=O)c3c(O)cc(O)cc3O2,-6.1987525576,0.0,1,G1,300.266,2.5854,79.46640000000001,22.0,6.0,3.0,6.0,2.0,112.0,3.0,0.0,0.0,3.0,100.13000000000001,123.99768938184054,2.2413915655906482,925.802728559792
A-2186,"tris(2-[bis(2-hydroxyethyl)amino]ethan-1-ol); 6-({bis[(5-carboxypentyl)amino]-1,3,5-triazin-2-yl}amino)hexanoic acid","InChI=1S/C21H36N6O6.3C6H15NO3/c28-16(29)10-4-1-7-13-22-19-25-20(23-14-8-2-5-11-17(30)31)27-21(26-19)24-15-9-3-6-12-18(32)33;3*8-4-1-7(2-5-9)3-6-10/h1-15H2,(H,28,29)(H,30,31)(H,32,33)(H3,22,23,24,25,26,27);3*8-10H,1-6H2",CAQVCPKFGUCELS-UHFFFAOYSA-N,OCCN(CCO)CCO.OCCN(CCO)CCO.OCCN(CCO)CCO.OC(=O)CCCCCNc1nc(NCCCCCC(O)=O)nc(NCCCCCC(O)=O)n1,-6.6832011337,0.0,1,G1,916.1249999999993,-2.161800000000005,236.69969999999932,63.0,21.0,15.0,24.0,39.0,372.0,1.0,0.0,0.0,1.0,378.44999999999993,371.19021552911954,-9.656603249332524e-07,993.215929250872
A-2187,"3,3,4,4,5,5,6,6,7,7,8,8,8-tridecafluorooctyl prop-2-enoate","InChI=1S/C11H7F13O2/c1-2-5(25)26-4-3-6(12,13)7(14,15)8(16,17)9(18,19)10(20,21)11(22,23)24/h2H,1,3-4H2",VPKQPPJQTZJZDB-UHFFFAOYSA-N,FC(F)(F)C(F)(F)C(F)(F)C(F)(F)C(F)(F)C(F)(F)CCOC(=O)C=C,-6.354159334099999,0.0,1,G1,418.14900000000017,4.844500000000002,56.56300000000002,26.0,2.0,0.0,15.0,8.0,154.0,0.0,0.0,0.0,0.0,26.3,135.12609670720306,5.846860266638834,534.6985935957281
A-2188,bis(8-methylnonyl) phenyl phosphite,"InChI=1S/C26H47O3P/c1-24(2)18-12-7-5-9-16-22-27-30(29-26-20-14-11-15-21-26)28-23-17-10-6-8-13-19-25(3)4/h11,14-15,20-21,24-25H,5-10,12-13,16-19,22-23H2,1-4H3",SXXILWLQSQDLDL-UHFFFAOYSA-N,CC(C)CCCCCCCOP(OCCCCCCCC(C)C)Oc1ccccc1,-6.382029914199999,0.32178056404999955,2,G3,438.6330000000002,9.3187,130.97400000000005,30.0,3.0,0.0,4.0,20.0,174.0,1.0,0.0,0.0,1.0,27.69,187.83057725120472,2.1678707463877176,454.42686911131733
A-2190,oxotitanium; sulfuric acid,"InChI=1S/H2O4S.O.Ti/c1-5(2,3)4;;/h(H2,1,2,3,4);;",ZYPJORZNHDXKSD-UHFFFAOYSA-N,O[S](O)(=O)=O.O=[Ti],-5.9613942775,0.10222399542248517,3,G5,161.94499999999996,-0.7740999999999998,14.863900000000001,7.0,3.0,2.0,7.0,0.0,42.0,0.0,0.0,0.0,0.0,91.66999999999999,52.028067132600945,0.0,102.04184397996642
A-2193,"2-methyl-9,10-dihydroanthracene-9,10-dione","InChI=1S/C15H10O2/c1-9-6-7-12-13(8-9)15(17)11-5-3-2-4-10(11)14(12)16/h2-8H,1H3",NJWGQARXZDRHCD-UHFFFAOYSA-N,Cc1ccc2C(=O)c3ccccc3C(=O)c2c1,-6.1171462485,0.0,1,G1,222.243,2.7704200000000014,64.48600000000002,17.0,2.0,0.0,2.0,0.0,82.0,2.0,0.0,1.0,3.0,34.14,98.90053671530913,2.3304909398632216,653.7214377553814
A-2200,"1-N,4-N-diphenylbenzene-1,4-diamine","InChI=1S/C18H16N2/c1-3-7-15(8-4-1)19-17-11-13-18(14-12-17)20-16-9-5-2-6-10-16/h1-14,19-20H",UTGQNNCQYDRXCH-UHFFFAOYSA-N,N(c1ccccc1)c2ccc(Nc3ccccc3)cc2,-6.239449641499999,0.0,1,G1,260.34000000000003,5.1738000000000035,85.89140000000003,20.0,2.0,2.0,2.0,4.0,98.0,3.0,0.0,0.0,3.0,24.06,118.64531589884115,1.6862843995225325,585.5180499526653
A-2201,"2,6-dimethyl naphthalene-2,6-dicarboxylate","InChI=1S/C14H12O4/c1-17-13(15)11-5-3-10-8-12(14(16)18-2)6-4-9(10)7-11/h3-8H,1-2H3",GYUVMLBYMPKZAZ-UHFFFAOYSA-N,COC(=O)c1ccc2cc(ccc2c1)C(=O)OC,-6.211736201,0.044865714200000184,2,G3,244.24599999999998,2.4130000000000003,66.62700000000002,18.0,4.0,0.0,4.0,2.0,92.0,2.0,0.0,0.0,2.0,52.60000000000001,104.1229707679199,2.4805888305757398,560.9701430031515
A-2205,"dialuminium tris[2-(2,4,5,7-tetrabromo-6-oxido-3-oxoxanthen-9-yl)benzoate]","InChI=1S/3C20H8Br4O5.2Al/c3*21-11-5-9-13(7-3-1-2-4-8(7)20(27)28)10-6-12(22)17(26)15(24)19(10)29-18(9)14(23)16(11)25;;/h3*1-6,25H,(H,27,28);;/q;;;2*+3/p-6",JNDCLPVZJSPREA-UHFFFAOYSA-H,[Al+3].[Al+3].[O-]C(=O)c1ccccc1C2=C3C=C(Br)C(=O)C(=C3Oc4c(Br)c([O-])c(Br)cc24)Br.[O-]C(=O)c5ccccc5C6=C7C=C(Br)C(=O)C(=C7Oc8c(Br)c([O-])c(Br)cc68)Br.[O-]C(=O)c9ccccc9C%10=C%11C=C(Br)C(=O)C(=C%11Oc%12c(Br)c([O-])c(Br)cc%10%12)Br,-7.1435627019000005,0.0,1,G1,1991.6009999999997,14.394099999999991,368.86350000000033,89.0,15.0,0.0,29.0,6.0,438.0,6.0,0.0,6.0,12.0,280.2,621.283296491005,1.706666640982224e-07,4591.556833101793
A-2206,"1,4-dihydroxy-9,10-dihydroanthracene-9,10-dione","InChI=1S/C14H8O4/c15-9-5-6-10(16)12-11(9)13(17)7-3-1-2-4-8(7)14(12)18/h1-6,15-16H",GUEIZVNYDFNHJU-UHFFFAOYSA-N,Oc1ccc(O)c2C(=O)c3ccccc3C(=O)c12,-6.2534935167,0.08539166074262029,6,G5,240.214,1.8731999999999998,63.07860000000002,18.0,4.0,2.0,4.0,0.0,88.0,2.0,0.0,1.0,3.0,74.6,102.12406210530455,2.4094150669454457,640.9353339687133
A-2210,"1,2-bis(propan-2-yl)naphthalene","InChI=1S/C16H20/c1-11(2)14-10-9-13-7-5-6-8-15(13)16(14)12(3)4/h5-12H,1-4H3",IAUKWGFWINVWKS-UHFFFAOYSA-N,CC(C)c1ccc2ccccc2c1C(C)C,-6.2301136188,0.04776079602732114,3,G5,212.33599999999996,5.086600000000004,72.12600000000005,16.0,0.0,0.0,0.0,2.0,84.0,2.0,0.0,0.0,2.0,0.0,98.30272033761179,2.789289725212396,492.3645117435043
A-2214,dioctylstannanone,"InChI=1S/2C8H17.O.Sn/c2*1-3-5-7-8-6-4-2;;/h2*1,3-8H2,2H3;;",LQRUPWUPINJLMU-UHFFFAOYSA-N,CCCCCCCC[Sn](=O)CCCCCCCC,-6.4785159933,0.44866882904999983,2,G3,361.1580000000003,6.129400000000007,82.80650000000007,18.0,1.0,0.0,2.0,14.0,108.0,0.0,0.0,0.0,0.0,17.07,122.24357046268518,3.124621332555885,161.9357738214561
A-2217,"4-{4-[4-(4-methoxyphenyl)piperazin-1-yl]phenyl}-4,5-dihydro-1H-1,2,4-triazol-5-one","InChI=1S/C19H21N5O2/c1-26-18-8-6-16(7-9-18)23-12-10-22(11-13-23)15-2-4-17(5-3-15)24-14-20-21-19(24)25/h2-9,14H,10-13H2,1H3,(H,21,25)",SEHQVBVJJRRRSG-UHFFFAOYSA-N,COc1ccc(cc1)N2CCN(CC2)c3ccc(cc3)N4C=NNC4=O,-6.4889092646,0.0,1,G1,351.40999999999997,1.8957999999999997,101.60470000000005,26.0,6.0,1.0,7.0,4.0,134.0,3.0,1.0,1.0,4.0,66.39,150.98608705794356,1.4101444851379632,906.1074680681232
A-2218,"1-(4-chlorophenyl)-3-(3,4-dichlorophenyl)urea","InChI=1S/C13H9Cl3N2O/c14-8-1-3-9(4-2-8)17-13(19)18-10-5-6-11(15)12(16)7-10/h1-7H,(H2,17,18,19)",ICUTUKXCWQYESQ-UHFFFAOYSA-N,Clc1ccc(NC(=O)Nc2ccc(Cl)c(Cl)c2)cc1,-6.4577264198,0.5206963426,2,G2,315.587,5.290800000000002,80.5554,19.0,1.0,2.0,6.0,2.0,98.0,2.0,0.0,0.0,2.0,41.13,125.02448458786247,2.0064249016293974,599.3373665151105
A-2221,"1,1-bis(tert-butylperoxy)-3,3,5-trimethylcyclohexane","InChI=1S/C17H34O4/c1-13-10-16(8,9)12-17(11-13,20-18-14(2,3)4)21-19-15(5,6)7/h13H,10-12H2,1-9H3",NALFRYPTRXKZPN-UHFFFAOYSA-N,CC1CC(C)(C)CC(C1)(OOC(C)(C)C)OOC(C)(C)C,-6.4806607684,0.4603078406482507,4,G5,302.45500000000004,5.022300000000005,83.37300000000008,21.0,4.0,0.0,4.0,4.0,126.0,0.0,1.0,1.0,1.0,36.92,129.88526525415017,2.87240301325283,317.67972077346747
A-2225,"(1R,4E,9S)-4,11,11-trimethyl-8-methylidenebicyclo[7.2.0]undec-4-ene","InChI=1S/C15H24/c1-11-6-5-7-12(2)13-10-15(3,4)14(13)9-8-11/h6,13-14H,2,5,7-10H2,1,3-4H3/b11-6+/t13-,14-/m1/s1",NPNUFJAVOOONJE-GFUGXAQUSA-N,C\C1=C/CCC(=C)[C@H]2CC(C)(C)[C@@H]2CC1,-6.3372616649,0.014322590749999975,2,G3,204.35699999999997,4.7252000000000045,66.74300000000005,15.0,0.0,0.0,0.0,0.0,84.0,0.0,1.0,2.0,2.0,0.0,94.45757225795508,2.119623126378003,293.1601712439863
A-2229,"1,1'-(2,3-dimethylbutane-2,3-diyl)dibenzene","InChI=1S/C18H22/c1-17(2,15-11-7-5-8-12-15)18(3,4)16-13-9-6-10-14-16/h5-14H,1-4H3",HGTUJZTUQFXBIH-UHFFFAOYSA-N,CC(C)(c1ccccc1)C(C)(C)c2ccccc2,-6.4741688972,0.0,1,G1,238.37399999999997,4.942000000000005,78.93600000000005,18.0,0.0,0.0,0.0,3.0,94.0,2.0,0.0,0.0,2.0,0.0,110.67815001194066,2.466536212709305,442.57622409136684
A-2231,2-(benzyloxy)naphthalene,"InChI=1S/C17H14O/c1-2-6-14(7-3-1)13-18-17-11-10-15-8-4-5-9-16(15)12-17/h1-12H,13H2",WLTCCDHHWYAMCG-UHFFFAOYSA-N,C(Oc1ccc2ccccc2c1)c3ccccc3,-6.4776739787,0.23036541929999999,2,G3,234.298,4.418800000000003,74.72200000000004,18.0,1.0,0.0,1.0,3.0,88.0,3.0,0.0,0.0,3.0,9.23,106.6486492011997,1.78737619501489,643.8355604705517
A-2232,"6-Bromo-3-methyl-3H-dibenz[f,ij]isoquinoline-2,7-dione","InChI=1S/C17H10BrNO2/c1-19-13-7-6-12(18)16-15(13)11(8-14(19)20)9-4-2-3-5-10(9)17(16)21/h2-8H,1H3",QTNAUUGQZYCWGQ-UHFFFAOYSA-N,CN1C(=O)C=C2c3ccccc3C(=O)c4c(Br)ccc1c24,-6.6804453214,0.0,1,G1,340.17600000000004,3.512400000000002,85.75750000000002,21.0,3.0,0.0,4.0,0.0,102.0,3.0,0.0,1.0,4.0,39.07,128.51442620583092,2.349565222946309,1001.5781209653659
A-2233,3-hydroxy-N-(3-nitrophenyl)-2-naphthamide,"InChI=1S/C17H12N2O4/c20-16-9-12-5-2-1-4-11(12)8-15(16)17(21)18-13-6-3-7-14(10-13)19(22)23/h1-10,20H,(H,18,21)",YZJSKRBKHCLMQC-UHFFFAOYSA-N,Oc1cc2ccccc2cc1C(=O)Nc3cccc(c3)[N+]([O-])=O,-6.6438656239,0.0,1,G1,308.293,3.7059000000000015,86.66240000000003,23.0,4.0,2.0,6.0,3.0,114.0,3.0,0.0,0.0,3.0,92.47,130.69369773004044,1.9276302759247497,921.3653597122112
A-2235,lanthanum(+3) cation; oxygen(-2) anion,InChI=1S/2La.3O/q2*+3;3*-2,MRELNEQAGSRDBK-UHFFFAOYSA-N,[O--].[O--].[O--].[La+3].[La+3],-6.6703538373,0.0,1,G1,325.809,-0.3564,2.0595,5.0,0.0,0.0,5.0,0.0,24.0,0.0,0.0,0.0,0.0,85.5,86.01814517375897,-0.0,4.854752972273344
A-2236,"bis(2,4-dichloro-5-nitrophenyl) carbonate",InChI=1S/C13H4Cl4N2O7/c14-5-1-7(16)11(3-9(5)18(21)22)25-13(20)26-12-4-10(19(23)24)6(15)2-8(12)17/h1-4H,CVUDBPILLYLOSC-UHFFFAOYSA-N,[O-][N+](=O)c1cc(OC(=O)Oc2cc(c(Cl)cc2Cl)[N+]([O-])=O)c(Cl)cc1Cl,-6.8129074612,0.0,1,G1,441.99400000000014,5.694400000000001,92.8848,26.0,7.0,0.0,13.0,4.0,136.0,2.0,0.0,0.0,2.0,121.81,163.7610683515414,2.273897320748215,861.6939412100224
A-2238,"Terphenyl, hydrogenated","InChI=1S/C18H22/c1-3-7-15(8-4-1)17-11-13-18(14-12-17)16-9-5-2-6-10-16/h1,3,5,9,11-16H,2,4,6-8,10H2",TVBYFUMVFJKKNJ-UHFFFAOYSA-N,C1CC=CC(C1)c2ccc(cc2)C3CCC=CC3,-6.5919290491,0.05888007594999989,2,G3,238.37399999999997,5.334000000000004,77.90600000000005,18.0,0.0,0.0,0.0,2.0,94.0,1.0,0.0,2.0,3.0,0.0,110.41984012082929,1.736105834392174,435.61104413490807
A-2240,octadec-9-en-1-yl dihydrogen phosphate,"InChI=1S/C18H36O.H3O4P/c1-2-3-4-5-6-7-8-9-10-11-12-13-14-15-16-17-18-19;1-5(2,3)4/h9-10,19H,2-8,11-18H2,1H3;(H3,1,2,3,4)/b10-9-;",JGVOASSDYQIBIF-KVVVOXFISA-N,CCCCCCCC\C=C/CCCCCCCCO.O[P](O)(O)=O,-6.785897843300001,0.0,1,G1,366.4789999999999,5.087600000000009,100.80070000000005,24.0,2.0,4.0,6.0,15.0,146.0,0.0,0.0,0.0,0.0,97.99000000000001,147.98604077717602,0.0,293.51958274693
A-2241,4-tert-butylphenol; formaldehyde,"InChI=1S/C10H14O.CH2O/c1-10(2,3)8-4-6-9(11)7-5-8;1-2/h4-7,11H,1-3H3;1H2",LZDOYVMSNJBLIM-UHFFFAOYSA-N,CC(C)(C)c1ccc(O)cc1.C=O,-6.4939402067,0.0,1,G1,180.24699999999996,2.5048000000000004,53.92780000000004,13.0,2.0,1.0,2.0,0.0,72.0,1.0,0.0,0.0,1.0,37.3,79.21770069724901,6.709090223541395e-07,243.7879433053778
A-2243,mercury,InChI=1S/Hg,QSHDDOUJBYECFT-UHFFFAOYSA-N,[Hg],-6.5541212514,0.0,1,G1,200.59,-0.0025,0.0,1.0,0.0,0.0,1.0,0.0,2.0,0.0,0.0,0.0,0.0,0.0,28.00040585247103,0.0,0.0
A-2244,"1-[(E)-2-(2,4-dimethylphenyl)diazen-1-yl]naphthalen-2-ol","InChI=1S/C18H16N2O/c1-12-7-9-16(13(2)11-12)19-20-18-15-6-4-3-5-14(15)8-10-17(18)21/h3-11,19H,1-2H3/b20-18-",YPXOPAFVVHXQDP-ZZEZOPTASA-N,Cc1ccc(N\N=C2/C(=O)C=Cc3ccccc23)c(C)c1,-6.7054442976,0.0,1,G1,276.33900000000006,3.7155400000000025,86.55870000000003,21.0,3.0,1.0,3.0,2.0,104.0,2.0,0.0,1.0,3.0,41.46,123.55955861597407,1.9560984078313077,772.5378359710456
A-2245,methyl myristate,"InChI=1S/C15H30O2/c1-3-4-5-6-7-8-9-10-11-12-13-14-15(16)17-2/h3-14H2,1-2H3",ZAZKJZBWRNNLDS-UHFFFAOYSA-N,CCCCCCCCCCCCCC(=O)OC,-6.6497381608,0.0,1,G1,242.40299999999993,4.8605000000000045,73.09400000000007,17.0,2.0,0.0,2.0,12.0,102.0,0.0,0.0,0.0,0.0,26.3,107.12350795893273,2.9612681471383215,166.30475487798427
A-2246,(4-anilino-1-naphthyl){bis[4-(dimethylamino)phenyl]}methanol,"InChI=1S/C33H33N3O/c1-35(2)27-18-14-24(15-19-27)33(37,25-16-20-28(21-17-25)36(3)4)31-22-23-32(30-13-9-8-12-29(30)31)34-26-10-6-5-7-11-26/h5-23,34,37H,1-4H3",WNDULEJVCPEASN-UHFFFAOYSA-N,CN(C)c1ccc(cc1)C(O)(c2ccc(cc2)N(C)C)c3ccc(Nc4ccccc4)c5ccccc35,-6.9891355524000005,0.0,1,G1,487.64700000000016,6.999600000000007,157.31149999999968,37.0,4.0,2.0,4.0,7.0,186.0,5.0,0.0,0.0,5.0,38.74,218.97282411761802,1.7122361195348514,1439.7368734516015
A-2248,N-{2-[(2-benzamidophenyl)disulfanyl]phenyl}benzamide,"InChI=1S/C26H20N2O2S2/c29-25(19-11-3-1-4-12-19)27-21-15-7-9-17-23(21)31-32-24-18-10-8-16-22(24)28-26(30)20-13-5-2-6-14-20/h1-18H,(H,27,29)(H,28,30)",ZHMIOPLMFZVSHY-UHFFFAOYSA-N,O=C(Nc1ccccc1SSc2ccccc2NC(=O)c3ccccc3)c4ccccc4,-6.9782870605,1.1109243747999997,2,G2,456.59200000000016,6.990600000000005,133.38839999999993,32.0,4.0,2.0,6.0,7.0,158.0,4.0,0.0,0.0,4.0,58.2,194.40152067086598,1.4669001835366384,1117.7017211152781
A-2250,"N,N-DIBUTYLDODECANAMIDE","InChI=1S/C20H41NO/c1-4-7-10-11-12-13-14-15-16-17-20(22)21(18-8-5-2)19-9-6-3/h4-19H2,1-3H3",MFARGUPPFBTESX-UHFFFAOYSA-N,CCCCCCCCCCCC(=O)N(CCCC)CCCC,-7.016412076799999,0.0,1,G1,311.5540000000001,6.336100000000007,98.24000000000008,22.0,1.0,0.0,2.0,16.0,132.0,0.0,0.0,0.0,0.0,20.310000000000002,139.5945069716123,3.613822572992725,231.86174320100946
A-2251,(2-methoxy-5-nitrophenyl) acetate,"InChI=1S/C9H9NO5/c1-6(11)15-9-5-7(10(12)13)3-4-8(9)14-2/h3-5H,1-2H3",XBFBLYSAWSLPRY-UHFFFAOYSA-N,COc1ccc(cc1OC(C)=O)[N+]([O-])=O,-2.9466040673,0.0,1,G1,211.17299999999997,1.5286999999999997,50.957400000000014,15.0,5.0,0.0,6.0,3.0,80.0,1.0,0.0,0.0,1.0,78.66999999999999,85.56781774424411,3.123368127282912,401.4892192028794
A-2252,Copper; methanesulfonic acid,"InChI=1S/CH4O3S.Cu/c1-5(2,3)4;/h1H3,(H,2,3,4);",SDFNZYMSEOUVIF-UHFFFAOYSA-N,[Cu].C[S](O)(=O)=O,0.7323301822,0.0,1,G1,159.653,-0.4985,17.472600000000003,6.0,2.0,1.0,5.0,0.0,43.0,0.0,0.0,0.0,0.0,54.37,46.96350731009093,0.0,93.96160537041904
A-2253,4-methylbenzoyl 4-methylbenzene-1-carboperoxoate,"InChI=1S/C16H14O4/c1-11-3-7-13(8-4-11)15(17)19-20-16(18)14-9-5-12(2)6-10-14/h3-10H,1-2H3",AGKBXKFWMQLFGZ-UHFFFAOYSA-N,Cc1ccc(cc1)C(=O)OOC(=O)c2ccc(C)cc2,-6.798351882,0.0,1,G1,270.284,3.232240000000002,73.18900000000004,20.0,4.0,0.0,4.0,2.0,102.0,2.0,0.0,0.0,2.0,52.6,116.42769575798702,1.9437578090816652,554.4300614555088
A-2255,2-cyclohexyl-6-[(3-cyclohexyl-2-hydroxy-5-methylphenyl)methyl]-4-methylphenol,"InChI=1S/C27H36O2/c1-18-13-22(26(28)24(15-18)20-9-5-3-6-10-20)17-23-14-19(2)16-25(27(23)29)21-11-7-4-8-12-21/h13-16,20-21,28-29H,3-12,17H2,1-2H3",AKNMPWVTPUHKCG-UHFFFAOYSA-N,Cc1cc(Cc2cc(C)cc(C3CCCCC3)c2O)c(O)c(c1)C4CCCCC4,-6.9790342734,0.5478041517932838,5,G4,392.5830000000002,7.400840000000007,120.14560000000006,29.0,2.0,2.0,2.0,4.0,156.0,2.0,2.0,2.0,4.0,40.46,175.5394342388437,1.6671198869995685,783.8268980429561
A-2257,"1,2-bis(2-ethylhexyl) benzene-1,2-dicarboxylate","InChI=1S/C24H38O4/c1-5-9-13-19(7-3)17-27-23(25)21-15-11-12-16-22(21)24(26)28-18-20(8-4)14-10-6-2/h11-12,15-16,19-20H,5-10,13-14,17-18H2,1-4H3",BJQHLKABXJIVAM-UHFFFAOYSA-N,CCCCC(CC)COC(=O)c1ccccc1C(=O)OCC(CC)CCCC,-6.9789083532000005,0.6138293590016048,7,G4,390.5640000000003,6.433000000000007,113.61900000000009,28.0,4.0,0.0,4.0,14.0,158.0,1.0,0.0,0.0,1.0,52.60000000000001,170.55049583773723,2.6905904564648386,530.7228097510647
A-2258,"1,2-bis(propan-2-yl)benzene; 1,3-bis(propan-2-yl)benzene; 1,4-bis(propan-2-yl)benzene","InChI=1S/C12H18/c1-9(2)11-7-5-6-8-12(11)10(3)4/h5-10H,1-4H3",OKIRBHVFJGXOIS-UHFFFAOYSA-N,CC(C)c1ccccc1C(C)C,-6.6027992709,0.0,1,G1,162.27599999999995,3.9334000000000033,54.62000000000005,12.0,0.0,0.0,0.0,2.0,66.0,1.0,0.0,0.0,1.0,0.0,75.6210558058766,3.086388778868778,218.97015243201014
A-2259,"1,3-diisopropylbenzene","InChI=1S/C12H18/c1-9(2)11-6-5-7-12(8-11)10(3)4/h5-10H,1-4H3",UNEATYXSUBPPKP-UHFFFAOYSA-N,CC(C)c1cccc(c1)C(C)C,-6.6027992709,0.0,1,G1,162.27599999999995,3.9334000000000033,54.62000000000005,12.0,0.0,0.0,0.0,2.0,66.0,1.0,0.0,0.0,1.0,0.0,75.6210558058766,2.95842190964212,222.72015243201014
A-2260,"(Z)-N-(1,3-dihydroxyoctadecan-2-yl)octadec-9-enamide","InChI=1S/C36H71NO3/c1-3-5-7-9-11-13-15-17-18-20-22-24-26-28-30-32-36(40)37-34(33-38)35(39)31-29-27-25-23-21-19-16-14-12-10-8-6-4-2/h17-18,34-35,38-39H,3-16,19-33H2,1-2H3,(H,37,40)/b18-17-",MJQIARGPQMNBGT-ZCXUNETKSA-N,CCCCCCCCCCCCCCCC(O)C(CO)NC(=O)CCCCCCC\C=C/CCCCCCCC,-6.4517618811,0.0,1,G1,565.9680000000003,10.343199999999996,174.78729999999962,40.0,3.0,3.0,4.0,32.0,238.0,0.0,0.0,0.0,0.0,69.56,250.12247378757047,3.575734366002712,536.1362882991057
A-2262,hexadecanoic acid,"InChI=1S/C16H32O2/c1-2-3-4-5-6-7-8-9-10-11-12-13-14-15-16(17)18/h2-15H2,1H3,(H,17,18)",IPCSVZSSVZVIGE-UHFFFAOYSA-N,CCCCCCCCCCCCCCCC(O)=O,-6.806908841,0.0,1,G1,256.42999999999995,5.552300000000005,77.94780000000007,18.0,1.0,1.0,2.0,14.0,108.0,0.0,0.0,0.0,0.0,37.3,113.1691385960185,2.9229656090325555,177.93577382145608
A-2264,"4,7-Methano-1H-indenol, 3a,4,5,6,7,7a-hexahydro-, acetate","InChI=1S/C12H16O2/c1-7(13)14-11-5-4-10-8-2-3-9(6-8)12(10)11/h5,8-10,12H,2-4,6H2,1H3",KARQHHMQOVRDNL-UHFFFAOYSA-N,CC(=O)OC1=CCC2C3CCC(C3)C12,-3.0097265709,0.0,1,G1,192.25799999999995,2.4994000000000005,52.27700000000004,14.0,2.0,0.0,2.0,1.0,76.0,0.0,2.0,3.0,3.0,26.3,84.32158512297093,1.8013048134867886,305.4435901441389
A-2267,"octamethyl-1,3,5,7,2,4,6,8-tetraoxatetrasilocane","InChI=1S/C8H24O4Si4/c1-13(2)9-14(3,4)11-16(7,8)12-15(5,6)10-13/h1-8H3",HMMGMWAXVFQUOA-UHFFFAOYSA-N,C[Si]1(C)O[Si](C)(C)O[Si](C)(C)O[Si](C)(C)O1,-6.953686490700001,0.40819059782181477,5,G5,296.62,2.8736000000000015,74.26800000000004,16.0,4.0,0.0,8.0,0.0,96.0,0.0,1.0,1.0,1.0,36.92,103.25277280587856,2.977060745318193,205.21187563522582
A-2268,3-octanoyloxypropyl octanoate,"InChI=1S/C19H36O4/c1-3-5-7-9-11-14-18(20)22-16-13-17-23-19(21)15-12-10-8-6-4-2/h3-17H2,1-2H3",XBBMJUWOCGWHRP-UHFFFAOYSA-N,CCCCCCCC(=O)OCCCOC(=O)CCCCCCC,-7.516526119400001,0.0,1,G1,328.4930000000001,5.183900000000006,93.28700000000008,23.0,4.0,0.0,4.0,16.0,136.0,0.0,0.0,0.0,0.0,52.6,141.8583437460698,3.299477983838683,261.09419995128235
A-2269,"1-(3,3-dimethylcyclohexyl)pent-4-en-1-one","InChI=1S/C13H22O/c1-4-5-8-12(14)11-7-6-9-13(2,3)10-11/h4,11H,1,5-10H2,2-3H3",OHYNEUHOSWPWLZ-UHFFFAOYSA-N,CC1(C)CCCC(C1)C(=O)CCC=C,-4.7793105096,0.0,1,G1,194.31799999999996,3.738100000000003,60.17700000000004,14.0,1.0,0.0,1.0,4.0,80.0,0.0,1.0,1.0,1.0,17.07,87.58464431491915,2.432012945763168,215.2754526075878
A-2270,9-ethyl-9H-carbazole,"InChI=1S/C14H13N/c1-2-15-13-9-5-3-7-11(13)12-8-4-6-10-14(12)15/h3-10H,2H2,1H3",PLAZXGNBGZYJSA-UHFFFAOYSA-N,CCn1c2ccccc2c3ccccc13,-6.813503151,0.0,1,G1,195.265,3.8144000000000027,65.11800000000004,15.0,1.0,0.0,1.0,1.0,74.0,3.0,0.0,0.0,3.0,4.93,88.94374831937024,2.6169090708759697,566.1070932544912
A-2271,N-ethyl-N-{2-[1-(2-methylpropoxy)ethoxy]ethyl}-4-[(E)-2-phenyldiazen-1-yl]aniline,"InChI=1S/C22H31N3O2/c1-5-25(15-16-26-19(4)27-17-18(2)3)22-13-11-21(12-14-22)24-23-20-9-7-6-8-10-20/h6-14,18-19H,5,15-17H2,1-4H3",BATVZJPOLFSGTD-UHFFFAOYSA-N,CCN(CCOC(C)OCC(C)C)c1ccc(cc1)N=Nc2ccccc2,-7.0905037661,0.0,1,G1,369.509,5.963500000000006,111.15100000000004,27.0,5.0,0.0,5.0,11.0,146.0,2.0,0.0,0.0,2.0,46.42,162.57162044323326,1.8319596539513565,671.7170623577776
A-2272,zirconium(4+) ion diphosphate,"InChI=1S/4H3O4P.3Zr/c4*1-5(2,3)4;;;/h4*(H3,1,2,3,4);;;/q;;;;3*+4/p-12",LEHFSLREWWMLPU-UHFFFAOYSA-B,[Zr+4].[Zr+4].[Zr+4].[O-][P]([O-])([O-])=O.[O-][P]([O-])([O-])=O.[O-][P]([O-])([O-])=O.[O-][P]([O-])([O-])=O,-7.3381588933,1.3879820748700695,3,G4,653.5520000000004,-11.305900000000001,30.426,23.0,16.0,0.0,23.0,0.0,128.0,0.0,0.0,0.0,0.0,345.0,184.8658228700457,-2.844444436839506e-08,291.9826350521752