ID,Name,InChI,InChIKey,SMILES,Solubility,SD,Ocurrences,Group,MolWt,MolLogP,MolMR,HeavyAtomCount,NumHAcceptors,NumHDonors,NumHeteroatoms,NumRotatableBonds,NumValenceElectrons,NumAromaticRings,NumSaturatedRings,NumAliphaticRings,RingCount,TPSA,LabuteASA,BalabanJ,BertzCT
A-1844,dibutyl but-2-enedioate,"InChI=1S/C12H20O4/c1-3-5-9-15-11(13)7-8-12(14)16-10-6-4-2/h7-8H,3-6,9-10H2,1-2H3/b8-7+",JBSLOWBPDRZSMB-BQYQJAHWSA-N,CCCCOC(=O)\C=C\C(=O)OCCCC,-4.3135515372,0.0,1,G1,228.28799999999993,2.2291999999999996,60.87400000000004,16.0,4.0,0.0,4.0,8.0,92.0,0.0,0.0,0.0,0.0,52.60000000000001,96.61414591310928,3.6282159297250254,209.17325948008235
A-1850,2-[(2-methylprop-2-enoyl)oxy]ethyl 2-methylprop-2-enoate,"InChI=1S/C10H14O4/c1-7(2)9(11)13-5-6-14-10(12)8(3)4/h1,3,5-6H2,2,4H3",STVZJERGLQHEKB-UHFFFAOYSA-N,CC(=C)C(=O)OCCOC(=O)C(C)=C,-2.2613132646,0.0,1,G1,198.21799999999996,1.2249999999999999,51.54600000000003,14.0,4.0,0.0,4.0,5.0,78.0,0.0,0.0,0.0,0.0,52.6,83.19465865213179,3.5718875165673554,237.29556359515865
A-1853,methanaminium chloride,"InChI=1S/CH5N.ClH/c1-2;/h2H2,1H3;1H",NQMRYBIKMRVZLB-UHFFFAOYSA-N,[Cl-].C[NH3+],-1.796002246,1.4832881222499998,2,G2,67.519,-4.137899999999999,8.8121,3.0,0.0,1.0,2.0,0.0,22.0,0.0,0.0,0.0,0.0,27.64,26.232234977391684,0.0,4.754887502163468
A-1855,"1,2,3-trimethylbenzene; 1H-indene; 2,3-dihydro-1H-indene","InChI=1S/C9H10.C9H8.C9H12/c2*1-2-5-9-7-3-6-8(9)4-1;1-7-5-4-6-8(2)9(7)3/h1-2,4-5H,3,6-7H2;1-6H,7H2;4-6H,1-3H3",KDEGXTBNBBKAJX-UHFFFAOYSA-N,Cc1cccc(C)c1C.C2Cc3ccccc3C2.C4C=Cc5ccccc45,-3.51623781,0.12051603300000013,2,G3,354.53700000000003,7.043060000000007,118.30000000000004,27.0,0.0,0.0,0.0,0.0,138.0,3.0,0.0,2.0,5.0,0.0,164.14046752901024,1.1680555470767106e-07,863.3117033513096
A-1857,benzyl 4-hydroxybenzoate,"InChI=1S/C14H12O3/c15-13-8-6-12(7-9-13)14(16)17-10-11-4-2-1-3-5-11/h1-9,15H,10H2",MOZDKDIOPSPTBH-UHFFFAOYSA-N,Oc1ccc(cc1)C(=O)OCc2ccccc2,-3.3249813225,0.01671187775000016,2,G3,228.24699999999999,2.749200000000001,63.66830000000004,17.0,3.0,1.0,3.0,3.0,86.0,2.0,0.0,0.0,2.0,46.53,99.28768263610088,1.9594054671723935,488.6355887837592
A-1859,(2E)-3-phenylprop-2-enenitrile,InChI=1S/C9H7N/c10-8-4-7-9-5-2-1-3-6-9/h1-7H/b7-4+,ZWKNLRXFUTWSOY-QPJJXVBHSA-N,N#C/C=C/c1ccccc1,-2.0829703418000003,0.0,1,G1,129.16199999999998,2.2233799999999997,41.08900000000002,10.0,1.0,0.0,1.0,1.0,48.0,1.0,0.0,0.0,1.0,23.79,60.229206111971244,2.789949981500122,253.80679720013123
A-1860,2-[(3-aminophenyl)sulfonyl]ethyl hydrogen sulfate,"InChI=1S/C8H11NO6S2/c9-7-2-1-3-8(6-7)16(10,11)5-4-15-17(12,13)14/h1-3,6H,4-5,9H2,(H,12,13,14)",BCLOBWIFURSERL-UHFFFAOYSA-N,Nc1cccc(c1)[S](=O)(=O)CCO[S](O)(=O)=O,-1.4238808493000001,0.0,1,G1,281.311,-0.13809999999999972,60.407800000000016,17.0,6.0,2.0,9.0,5.0,96.0,1.0,0.0,0.0,1.0,123.75999999999999,99.07776154269499,2.765085557651497,592.1963481728367
A-1861,"(3E)-4-(2,6,6-trimethylcyclohex-2-en-1-yl)but-3-en-2-one","InChI=1S/C13H20O/c1-10-6-5-9-13(3,4)12(10)8-7-11(2)14/h6-8,12H,5,9H2,1-4H3/b8-7+",UZFLPKAIBPNNCA-BQYQJAHWSA-N,CC(=O)/C=C/C1C(=CCCC1(C)C)C,-3.2586779357999998,0.28837706305,2,G3,192.30199999999996,3.5141000000000027,60.08300000000004,14.0,1.0,0.0,1.0,2.0,78.0,0.0,0.0,1.0,1.0,17.07,86.89504128273487,2.8622896032432172,281.6106883094834
A-1863,ethyl formate,"InChI=1S/C3H6O2/c1-2-5-3-4/h3H,2H2,1H3",WBJINCZRORDGAQ-UHFFFAOYSA-N,CCOC=O,0.1514941879,0.03761429775,2,G3,74.07900000000001,0.17930000000000001,17.689999999999998,5.0,2.0,0.0,2.0,2.0,30.0,0.0,0.0,0.0,0.0,26.3,30.744202586173408,2.4017152226171965,26.07403392114697
A-1864,2-amino-4-sulfobenzoic acid,"InChI=1S/C7H7NO5S/c8-6-3-4(14(11,12)13)1-2-5(6)7(9)10/h1-3H,8H2,(H,9,10)(H,11,12,13)",GRGSHONWRKRWGP-UHFFFAOYSA-N,Nc1cc(ccc1C(O)=O)[S](O)(=O)=O,-1.3156745209,0.0,1,G1,217.20199999999997,0.2136999999999999,47.6283,14.0,4.0,3.0,7.0,2.0,76.0,1.0,0.0,0.0,1.0,117.69,79.72062779318667,3.339787385782996,478.8535635303721
A-1865,4-(2-aminoethyl)phenol,"InChI=1S/C8H11NO/c9-6-5-7-1-3-8(10)4-2-7/h1-4,10H,5-6,9H2",DZGWFCGJZKJUFP-UHFFFAOYSA-N,NCCc1ccc(O)cc1,-1.1161078312000001,0.0,1,G1,137.18199999999996,0.8934,40.86520000000002,10.0,2.0,2.0,2.0,2.0,54.0,1.0,0.0,0.0,1.0,46.25,60.2954117974989,2.693803452362809,192.91749419417292
A-1866,sodium 6-amino-5-[[2-[(cyclohexylmethylamino)sulphonyl]phenyl]azo]-4-hydroxynaphthalene-2-sulphonate,"InChI=1S/C23H26N4O6S2.Na/c1-27(16-7-3-2-4-8-16)34(29,30)21-10-6-5-9-19(21)25-26-23-18(24)12-11-15-13-17(35(31,32)33)14-20(28)22(15)23;/h5-6,9-14,16,24-26H,2-4,7-8H2,1H3,(H,31,32,33);/q;+1/p-1",LSBJGNGGNXAKCL-UHFFFAOYSA-M,[Na+].CN(C1CCCCC1)[S](=O)(=O)c2ccccc2NNC3=C4C(=O)C=C(C=C4C=CC3=N)[S]([O-])(=O)=O,-2.7116859388999996,0.0,1,G1,540.5990000000002,-0.6578299999999975,129.78510000000009,36.0,9.0,3.0,13.0,7.0,186.0,1.0,1.0,3.0,4.0,159.56,232.33889215704528,3.609993390704239e-06,1421.8052428929639
A-1867,2-butoxyethyl benzoate,"InChI=1S/C13H18O3/c1-2-3-9-15-10-11-16-13(14)12-7-5-4-6-8-12/h4-8H,2-3,9-11H2,1H3",NMBQBIACXMPEQB-UHFFFAOYSA-N,CCCCOCCOC(=O)c1ccccc1,-3.3224225356,0.0,1,G1,222.28400000000002,2.660100000000001,62.451500000000046,16.0,3.0,0.0,3.0,7.0,88.0,1.0,0.0,0.0,1.0,35.53,96.37461047933077,2.116728158652159,295.30583312377763
A-1868,2-methoxy-4-nitroaniline,"InChI=1S/C7H8N2O3/c1-12-7-4-5(9(10)11)2-3-6(7)8/h2-4H,8H2,1H3",GVBHRNIWBGTNQA-UHFFFAOYSA-N,COc1cc(ccc1N)[N+]([O-])=O,-3.2045127381,0.0,1,G1,168.152,1.1856,44.06080000000001,12.0,4.0,1.0,5.0,2.0,64.0,1.0,0.0,0.0,1.0,78.38999999999999,68.90275688291297,3.1343002499495434,311.5198400095355
A-1869,zinc(2+) ion sulfanediide,InChI=1S/S.Zn,WGPCGCOKHWGKJJ-UHFFFAOYSA-N,S=[Zn],-2.9676237394,1.978948405280716,3,G4,97.457,0.6457,7.591,2.0,1.0,0.0,2.0,0.0,8.0,0.0,0.0,0.0,0.0,0.0,27.141437902374904,2.0,2.0
A-1870,2-({3-[bis(carboxymethyl)amino]propyl}(carboxymethyl)amino)acetic acid,"InChI=1S/C11H18N2O8/c14-8(15)4-12(5-9(16)17)2-1-3-13(6-10(18)19)7-11(20)21/h1-7H2,(H,14,15)(H,16,17)(H,18,19)(H,20,21)",DMQQXDPCRUGSQB-UHFFFAOYSA-N,OC(=O)CN(CCCN(CC(O)=O)CC(O)=O)CC(O)=O,-1.4690725372,0.0,1,G1,306.2710000000001,-1.6810999999999965,68.04020000000003,21.0,6.0,4.0,10.0,12.0,120.0,0.0,0.0,0.0,0.0,155.68,119.73136292116152,4.336673146764226,329.684467129886
A-1871,"3,4,5-trifluorophenol","InChI=1S/C6H3F3O/c7-4-1-3(10)2-5(8)6(4)9/h1-2,10H",ZRTWIJKGTUGZJY-UHFFFAOYSA-N,Oc1cc(F)c(F)c(F)c1,-0.1536096917,0.0,1,G1,148.083,1.8094999999999997,27.9808,10.0,1.0,1.0,4.0,0.0,54.0,1.0,0.0,0.0,1.0,20.23,54.722243080471685,3.310532874722407,236.16499587006638
A-1872,hexanoic acid,"InChI=1S/C6H12O2/c1-2-3-4-5-6(7)8/h2-5H2,1H3,(H,7,8)",FUZZWVXGSFPDMH-UHFFFAOYSA-N,CCCCCC(O)=O,-1.0522193787,0.0,1,G1,116.15999999999998,1.6513,31.77779999999998,8.0,1.0,1.0,2.0,4.0,48.0,0.0,0.0,0.0,0.0,37.3,49.51971745205236,2.822354554248032,68.92878689342031
A-1873,"1,2,3-tributyl 2-hydroxypropane-1,2,3-tricarboxylate","InChI=1S/C18H32O7/c1-4-7-10-23-15(19)13-18(22,17(21)25-12-9-6-3)14-16(20)24-11-8-5-2/h22H,4-14H2,1-3H3",ZFOZVQLOBQUTQQ-UHFFFAOYSA-N,CCCCOC(=O)CC(O)(CC(=O)OCCCC)C(=O)OCCCC,-3.5452709716000004,0.0,1,G1,360.4470000000002,2.5276000000000005,91.78480000000006,25.0,7.0,1.0,7.0,14.0,146.0,0.0,0.0,0.0,0.0,99.13000000000001,149.5627027134199,4.7973447223311965,382.22876128571573
A-1874,"(2,4-dimethylcyclohex-3-en-1-yl)methyl acetate","InChI=1S/C11H18O2/c1-8-4-5-11(9(2)6-8)7-13-10(3)12/h6,9,11H,4-5,7H2,1-3H3",LICUDMOFXVHDPB-UHFFFAOYSA-N,CC1C=C(C)CCC1COC(C)=O,-3.2503985576999996,0.0,1,G1,182.26299999999998,2.541900000000001,52.27800000000004,13.0,2.0,0.0,2.0,2.0,74.0,0.0,0.0,1.0,1.0,26.3,79.96830531563279,2.396855637161826,218.13016856543948
A-1875,2-ethylhexyl cyanoacetate,"InChI=1S/C11H19NO2/c1-3-5-6-10(4-2)9-14-11(13)7-8-12/h10H,3-7,9H2,1-2H3",ZNYBQVBNSXLZNI-UHFFFAOYSA-N,CCCCC(CC)COC(=O)CC#N,-3.2864784846,0.0,1,G1,197.27799999999996,2.6596800000000007,54.49500000000004,14.0,3.0,0.0,3.0,7.0,80.0,0.0,0.0,0.0,0.0,50.09,86.05631918281497,3.6146686382533137,195.9544373195103
A-1876,tetralead trioxide sulphate,"InChI=1S/H2O4S.3O.4Pb/c1-5(2,3)4;;;;;;;/h(H2,1,2,3,4);;;;;;;/q;;;;;;;+2/p-2",ULGNLQBHIXGZMQ-UHFFFAOYSA-L,[Pb++].[O-][S]([O-])(=O)=O.O=[Pb].O=[Pb].O=[Pb],-3.9794501756,0.0,1,G1,972.8600000000001,-3.2176,35.5501,12.0,7.0,0.0,12.0,0.0,64.0,0.0,0.0,0.0,0.0,131.46999999999997,137.65227039488673,-2.0333333251261906e-08,126.73047810401042
A-1877,"6-{[amino(phenyl)acetyl]amino}-3,3-dimethyl-7-oxo-4-thia-1-azabicyclo[3.2.0]heptane-2-carboxylic acid","InChI=1S/C16H19N3O4S/c1-16(2)11(15(22)23)19-13(21)10(14(19)24-16)18-12(20)9(17)8-6-4-3-5-7-8/h3-7,9-11,14H,17H2,1-2H3,(H,18,20)(H,22,23)/t9-,10-,11+,14-/m1/s1",AVKUERGKIZMTKX-NJBDSQKTSA-N,CC1(C)S[C@@H]2[C@H](NC(=O)[C@H](N)c3ccccc3)C(=O)N2[C@H]1C(O)=O,-1.5390164423,0.0,1,G1,349.4120000000001,0.3181000000000002,89.02890000000005,24.0,5.0,3.0,8.0,4.0,128.0,1.0,2.0,2.0,3.0,112.72999999999999,143.1206585849213,1.711293315571299,693.8227554205865
A-1878,4-[(4-aminophenyl)methyl]aniline,"InChI=1S/C13H14N2/c14-12-5-1-10(2-6-12)9-11-3-7-13(15)8-4-11/h1-8H,9,14-15H2",YBRVSVVVWCFQMG-UHFFFAOYSA-N,Nc1ccc(Cc2ccc(N)cc2)cc1,-2.2929334424000003,0.0,1,G1,198.269,2.4418000000000006,64.51480000000002,15.0,2.0,2.0,2.0,2.0,76.0,2.0,0.0,0.0,2.0,52.04,89.53322083398305,2.1467113756182017,385.5980616534615
A-1879,"6-ethoxy-2,2,4-trimethyl-1,2-dihydroquinoline","InChI=1S/C14H19NO/c1-5-16-11-6-7-13-12(8-11)10(2)9-14(3,4)15-13/h6-9,15H,5H2,1-4H3",DECIPOUIJURFOJ-UHFFFAOYSA-N,CCOc1ccc2NC(C)(C)C=C(C)c2c1,-3.332762335,0.1741387773002963,4,G5,217.31199999999998,3.692700000000002,68.96370000000003,16.0,2.0,1.0,2.0,2.0,86.0,1.0,0.0,1.0,2.0,21.259999999999998,97.31891326207126,2.4152699754678197,432.36152386019273
A-1881,nonanal,"InChI=1S/C9H18O/c1-2-3-4-5-6-7-8-9-10/h9H,2-8H2,1H3",GYHFUZHODSMOHU-UHFFFAOYSA-N,CCCCCCCCC=O,-3.1487064763,0.01667565106190232,3,G5,142.242,2.935900000000001,44.057000000000016,10.0,1.0,0.0,1.0,7.0,60.0,0.0,0.0,0.0,0.0,17.07,63.820310043046184,2.703789901245323,69.12851783364005
A-1884,1-(2-furyl)methanamine,"InChI=1S/C5H7NO/c6-4-5-2-1-3-7-5/h1-3H,4,6H2",DDRPCXLAQZKBJP-UHFFFAOYSA-N,NCc1occc1,1.0127047417,0.0,1,G1,97.11699999999998,0.7383000000000001,26.5994,7.0,2.0,1.0,2.0,1.0,38.0,1.0,0.0,0.0,1.0,39.16,41.930565194983124,2.762608341443769,122.63609436412281
A-1885,"2,2,2-trifluoroethan-1-ol","InChI=1S/C2H3F3O/c3-2(4,5)1-6/h6H,1H2",RHQDFWAXVIIEBN-UHFFFAOYSA-N,OCC(F)(F)F,0.9998306581999999,0.0,1,G1,100.03900000000002,0.5410000000000001,13.140800000000002,6.0,1.0,1.0,4.0,0.0,38.0,0.0,0.0,0.0,0.0,20.23,32.39503310320087,3.168489872670569,38.54808140664299
A-1886,"2,4,6,8,10-pentamethyl-1,3,5,7,9,2,4,6,8,10-pentaoxapentasilecane",InChI=1S/C5H15O5Si5/c1-11-6-12(2)8-14(4)10-15(5)9-13(3)7-11/h1-5H3,PUNGSQUVTIDKNU-UHFFFAOYSA-N,C[Si]1O[Si](C)O[Si](C)O[Si](C)O[Si](C)O1,0.5292955703,0.0,1,G1,295.6,0.6729999999999998,63.51500000000003,15.0,5.0,0.0,10.0,0.0,85.0,0.0,1.0,1.0,1.0,46.150000000000006,99.88250908940519,2.545062749921742,140.2129994085646
A-1887,2-(2-ethoxyethoxy)ethyl acetate,"InChI=1S/C8H16O4/c1-3-10-4-5-11-6-7-12-8(2)9/h3-7H2,1-2H3",FPZWZCWUIYYYBU-UHFFFAOYSA-N,CCOCCOCCOC(C)=O,0.7539645195999999,0.0,1,G1,176.212,0.6025999999999998,43.94500000000002,12.0,4.0,0.0,4.0,7.0,72.0,0.0,0.0,0.0,0.0,44.760000000000005,72.79600361717021,2.86138733944056,113.62548782626678
A-1890,[tris(isopropenyloxy)vinyl]silane,"InChI=1S/C11H18O3Si/c1-8-15(12-9(2)3,13-10(4)5)14-11(6)7/h8H,1-2,4,6H2,3,5,7H3",GBFVZTUQONJGSL-UHFFFAOYSA-N,CC(=C)O[Si](OC(C)=C)(OC(C)=C)C=C,0.6452233386,0.0,1,G1,226.34799999999993,3.3011000000000017,63.64800000000003,15.0,3.0,0.0,4.0,7.0,84.0,0.0,0.0,0.0,0.0,27.69,92.72186856368113,4.897563150614515,253.41417184399393
A-1892,"butane-1,4-diol","InChI=1S/C4H10O2/c5-3-1-2-4-6/h5-6H,1-4H2",WERYXYBDKMZEQL-UHFFFAOYSA-N,OCCCCO,1.0451691789,0.5,2,G3,90.122,-0.24880000000000008,23.405599999999993,6.0,2.0,2.0,2.0,3.0,38.0,0.0,0.0,0.0,0.0,40.46,37.4225448754114,2.3390923149762908,17.509775004326936
A-1893,"hexamethyl-1,3,5,2,4,6-trioxatrisilinane","InChI=1S/C6H18O3Si3/c1-10(2)7-11(3,4)9-12(5,6)8-10/h1-6H3",HTDJPCNNEPUOOQ-UHFFFAOYSA-N,C[Si]1(C)O[Si](C)(C)O[Si](C)(C)O1,0.652738306,2.89794000865,2,G2,222.46499999999995,2.1552,55.701000000000036,12.0,3.0,0.0,6.0,0.0,72.0,0.0,1.0,1.0,1.0,27.69,77.78169904438485,2.808020996764068,145.19311924156366
A-1896,"propane-1,2,3-triol","InChI=1S/C3H8O3/c4-1-3(6)2-5/h3-6H,1-2H2",PEDCQBHIVMGVHV-UHFFFAOYSA-N,OCC(O)CO,1.0357686634999999,0.14634513902334528,3,G5,92.09400000000001,-1.6681000000000001,20.1784,6.0,3.0,3.0,3.0,2.0,38.0,0.0,0.0,0.0,0.0,60.69,35.851836513210806,2.7541847860376616,25.219280948873624
A-1898,tetraethylazanium bromide,"InChI=1S/C8H20N.BrH/c1-5-9(6-2,7-3)8-4;/h5-8H2,1-4H3;1H/q+1;/p-1",HWCKGOZZJDHMNC-UHFFFAOYSA-M,[Br-].CC[N+](CC)(CC)CC,0.6774520067,0.0,1,G1,210.15899999999996,-1.1131999999999982,42.424400000000006,10.0,0.0,0.0,2.0,4.0,64.0,0.0,0.0,0.0,0.0,0.0,75.77635309785198,0.0,52.14806784229394
A-1899,tetraethylazanium chloride,"InChI=1S/C8H20N.ClH/c1-5-9(6-2,7-3)8-4;/h5-8H2,1-4H3;1H/q+1;/p-1",YMBCJWGVCUEGHA-UHFFFAOYSA-M,[Cl-].CC[N+](CC)(CC)CC,0.7806565243000001,0.0,1,G1,165.708,-1.1131999999999982,42.424400000000006,10.0,0.0,0.0,2.0,4.0,64.0,0.0,0.0,0.0,0.0,0.0,71.41674423795392,0.0,52.14806784229394
A-1900,tripotassium methylsilanetris(olate),"InChI=1S/CH5O3Si.K/c1-5(2,3)4;/h2-3H,1H3;/q-1;+1",MQGFFOISLVUDQU-UHFFFAOYSA-N,[K+].C[Si](O)(O)[O-],0.8786634333,0.0,1,G1,132.23199999999997,-5.095999999999998,16.055600000000002,6.0,3.0,2.0,5.0,0.0,32.0,0.0,0.0,0.0,0.0,63.519999999999996,79.79548981188204,0.0,26.264662506490403
A-1901,"butan-2-one O,O',O''-(methylsilylidyne)trioxime","InChI=1S/C13H27N3O3Si/c1-8-11(4)14-17-20(7,18-15-12(5)9-2)19-16-13(6)10-3/h8-10H2,1-7H3/b14-11+,15-12+,16-13+",OGZPYBBKQGPQNU-DABLZPOSSA-N,CC/C(C)=N/O[Si@](C)(O\N=C(C)\CC)O\N=C(C)\CC,-0.47923401670000004,0.0,1,G1,301.4630000000001,3.9626000000000037,85.07300000000005,20.0,6.0,0.0,7.0,9.0,116.0,0.0,0.0,0.0,0.0,64.77,122.75824787722564,4.919056398986903,325.999020635471
A-1902,peroxol,InChI=1S/H2O2/c1-2/h1-2H,MHAJPDPJQMAIIY-UHFFFAOYSA-N,OO,0.4683422926,0.0,1,G1,34.014,0.01739999999999997,5.2576,2.0,2.0,2.0,2.0,0.0,14.0,0.0,0.0,0.0,0.0,40.46,11.892071733563276,1.0,0.0
A-1903,"2-amino-5-[(4-amino-3-sulfophenyl)[(1E)-3-sulfocyclohexa-2,5-dien-1-ylidene]methyl]-3-methylbenzene-1-sulfonic acid","InChI=1S/C20H19N3O9S3.2Na/c1-10-6-13(9-18(20(10)23)35(30,31)32)19(11-2-4-14(21)16(7-11)33(24,25)26)12-3-5-15(22)17(8-12)34(27,28)29;;/h2-9,23H,21-22H2,1H3,(H,24,25,26)(H,27,28,29)(H,30,31,32);;/q;2*+1/p-2",WZRZTHMJPHPAMU-UHFFFAOYSA-L,[Na+].[Na+].CC1=CC(/C=C(C1=N)[S]([O-])(=O)=O)=C(/c2ccc(N)c(c2)[S](O)(=O)=O)c3ccc(N)c(c3)[S]([O-])(=O)=O,-1.7675632436000002,0.0,1,G1,585.5490000000003,-4.779529999999994,124.7725,37.0,11.0,4.0,17.0,5.0,186.0,2.0,0.0,1.0,3.0,244.66,257.4112336594879,3.422497605870474e-06,1628.5826077070562
A-1904,2-hydroxy-4-methylbenzoic acid,"InChI=1S/C8H8O3/c1-5-2-3-6(8(10)11)7(9)4-5/h2-4,9H,1H3,(H,10,11)",NJESAXZANHETJV-UHFFFAOYSA-N,Cc1ccc(C(O)=O)c(O)c1,-1.1822691023,0.8588654488499999,2,G2,152.149,1.39882,39.80310000000001,11.0,2.0,2.0,3.0,1.0,58.0,1.0,0.0,0.0,1.0,57.53,63.91127695272596,3.1960696621259195,291.38868672862577
A-1907,2-hydroxy-5-nitrobenzoic acid,"InChI=1S/C7H5NO5/c9-6-2-1-4(8(12)13)3-5(6)7(10)11/h1-3,9H,(H,10,11)",PPDRLQLKHRZIJC-UHFFFAOYSA-N,OC(=O)c1cc(ccc1O)[N+]([O-])=O,-2.2627334080000003,0.1073350824999999,2,G3,183.11899999999997,0.9985999999999999,41.72050000000001,13.0,4.0,2.0,6.0,2.0,68.0,1.0,0.0,0.0,1.0,100.66999999999999,72.19931056082916,3.267052212361692,373.14569309988275
A-1912,"1,2-dimethyl-4-nitrobenzene","InChI=1S/C8H9NO2/c1-6-3-4-8(9(10)11)5-7(6)2/h3-5H,1-2H3",HFZKOYWDLDYELC-UHFFFAOYSA-N,Cc1ccc(cc1C)[N+]([O-])=O,-3.1794512484,0.0,1,G1,151.165,2.21164,42.57040000000002,11.0,2.0,0.0,3.0,1.0,58.0,1.0,0.0,0.0,1.0,43.14,64.81426307078998,3.1515496683060507,294.1435742307893
A-1913,1-chloro-2-(chloromethyl)benzene,"InChI=1S/C7H6Cl2/c8-5-6-3-1-2-4-7(6)9/h1-4H,5H2",BASMANVIUSSIIM-UHFFFAOYSA-N,ClCc1ccccc1Cl,-3.2069094899,0.0,1,G1,161.03099999999995,3.078800000000001,41.009000000000015,9.0,0.0,0.0,2.0,1.0,48.0,1.0,0.0,0.0,1.0,0.0,64.40287768765691,3.0065240073265844,195.86256853719752
A-1914,2-phenylacetonitrile,"InChI=1S/C8H7N/c9-7-6-8-4-2-1-3-5-8/h1-5H,6H2",SUSQOBVLVYHIEX-UHFFFAOYSA-N,N#CCc1ccccc1,-3.0687460001,0.0,1,G1,117.15099999999995,1.75268,35.75900000000001,9.0,1.0,0.0,1.0,1.0,44.0,1.0,0.0,0.0,1.0,23.79,54.55386702975889,2.756899621214729,207.75928651033234
A-1916,"4,4'-methylenebis(2,6-dimethylphenol)","InChI=1S/C17H20O2/c1-10-5-14(6-11(2)16(10)18)9-15-7-12(3)17(19)13(4)8-15/h5-8,18-19H,9H2,1-4H3",AZZWZMUXHALBCQ-UHFFFAOYSA-N,Cc1cc(Cc2cc(C)c(O)c(C)c2)cc(C)c1O,-3.4088248510000003,0.0,1,G1,256.34499999999997,3.922280000000003,77.96760000000003,19.0,2.0,2.0,2.0,2.0,100.0,2.0,0.0,0.0,2.0,40.46,113.90167540193606,2.3641287974343315,525.6445708975931
A-1921,sodium dodecylbenzenesulfonate,"InChI=1S/C18H30O3S.Na/c1-2-3-4-5-6-7-8-9-10-14-17-21-22(19,20)18-15-12-11-13-16-18;/h11-13,15-16H,2-10,14,17H2,1H3;",GVGUFUZHNYFZLC-UHFFFAOYSA-N,[Na].CCCCCCCCCCCCO[S](=O)(=O)c1ccccc1,-3.5434372389999997,0.4515449935,2,G3,349.492,4.932000000000005,97.17780000000008,23.0,3.0,0.0,5.0,13.0,127.0,1.0,0.0,0.0,1.0,43.370000000000005,164.1720556023197,4.839993903808018e-06,474.2998820159188
A-1922,tridecan-1-ol,"InChI=1S/C13H28O/c1-2-3-4-5-6-7-8-9-10-11-12-13-14/h14H,2-13H2,1H3",XFRVVPUIAFSTFO-UHFFFAOYSA-N,CCCCCCCCCCCCCO,-3.3018240282,0.0,1,G1,200.36599999999996,4.289700000000004,63.54680000000006,14.0,1.0,1.0,1.0,11.0,86.0,0.0,0.0,0.0,0.0,20.23,89.9127901527849,2.7847655305545773,79.23635259028
A-1923,bismuth(3+) citrate,"InChI=1S/C6H8O7.Bi/c7-3(8)1-6(13,5(11)12)2-4(9)10;/h13H,1-2H2,(H,7,8)(H,9,10)(H,11,12);/q;+3/p-3",ANERHPOLUMFRDC-UHFFFAOYSA-K,[Bi+3].OC(CC([O-])=O)(CC([O-])=O)C([O-])=O,-4.5597626401,0.0,1,G1,398.07900000000024,-5.633399999999998,34.958800000000004,14.0,7.0,1.0,8.0,5.0,76.0,0.0,0.0,0.0,0.0,140.62,97.4737204993188,0.0,232.56457479341313
A-1925,2-tert-butylcyclohexyl ethyl carbonate,"InChI=1S/C13H24O3/c1-5-15-12(14)16-11-9-7-6-8-10(11)13(2,3)4/h10-11H,5-9H2,1-4H3",ZHWLEUGSDGROJS-UHFFFAOYSA-N,CCOC(=O)OC1CCCCC1C(C)(C)C,-4.3211402828,0.0,1,G1,228.33199999999994,3.764400000000003,63.30800000000005,16.0,3.0,0.0,3.0,2.0,94.0,0.0,1.0,1.0,1.0,35.53,98.50133780611714,2.5691832309746636,229.82243064641156
A-1926,"4-[4-(4-chlorophenyl)-4-hydroxypiperidin-1-yl]-N,N-dimethyl-2,2-diphenylbutanamide","InChI=1S/C29H33ClN2O2.ClH/c1-31(2)27(33)29(24-9-5-3-6-10-24,25-11-7-4-8-12-25)19-22-32-20-17-28(34,18-21-32)23-13-15-26(30)16-14-23;/h3-16,34H,17-22H2,1-2H3;1H",PGYPOBZJRVSMDS-UHFFFAOYSA-N,[H+].[Cl-].CN(C)C(=O)C(CCN1CCC(O)(CC1)c2ccc(Cl)cc2)(c3ccccc3)c4ccccc4,-4.6731215617,0.0,1,G1,513.5090000000001,2.2045000000000012,139.10979999999986,35.0,3.0,1.0,6.0,7.0,186.0,3.0,1.0,1.0,4.0,43.78,220.97070467803155,2.2816646170227356e-06,1047.7766188754827
A-1927,hexanoyl hexanoate,"InChI=1S/C12H22O3/c1-3-5-7-9-11(13)15-12(14)10-8-6-4-2/h3-10H2,1-2H3",PKHMTIRCAFTBDS-UHFFFAOYSA-N,CCCCCC(=O)OC(=O)CCCCC,-4.296805043,0.0,1,G1,214.30499999999992,3.216800000000002,59.383000000000045,15.0,3.0,0.0,3.0,8.0,88.0,0.0,0.0,0.0,0.0,43.370000000000005,92.19020371578664,3.446938378091589,167.3062531800184
A-1930,undecan-2-one,"InChI=1S/C11H22O/c1-3-4-5-6-7-8-9-10-11(2)12/h3-10H2,1-2H3",KYWIYKKSMDLRDC-UHFFFAOYSA-N,CCCCCCCCCC(C)=O,-4.2018206695,0.0,1,G1,170.296,3.7161000000000026,53.29100000000004,12.0,1.0,0.0,1.0,8.0,72.0,0.0,0.0,0.0,0.0,17.07,76.55019427183942,2.86138733944056,107.5717400212565
A-1931,[2-(tert-butylperoxy)propan-2-yl]benzene,"InChI=1S/C13H20O2/c1-12(2,3)14-15-13(4,5)11-9-7-6-8-10-11/h6-10H,1-5H3",BIISIZOQPWZPPS-UHFFFAOYSA-N,CC(C)(C)OOC(C)(C)c1ccccc1,-4.2909341502,0.0,1,G1,208.30100000000002,3.6684000000000028,61.39100000000005,15.0,2.0,0.0,2.0,3.0,84.0,1.0,0.0,0.0,1.0,18.46,92.1423836950253,2.6788339682610025,296.0620335464123
A-1933,2-methylheptyl 2-sulfanylacetate,"InChI=1S/C10H20O2S/c1-9(2)6-4-3-5-7-12-10(11)8-13/h9,13H,3-8H2,1-2H3",RZBBHEJLECUBJT-UHFFFAOYSA-N,CC(C)CCCCCOC(=O)CS,-4.2850368969,0.0,1,G1,204.335,2.675800000000001,58.118000000000045,13.0,3.0,1.0,3.0,7.0,78.0,0.0,0.0,0.0,0.0,26.3,86.45386405035137,3.0380099445134228,134.88643538696058