ID,Name,InChI,InChIKey,SMILES,Solubility,SD,Ocurrences,Group,MolWt,MolLogP,MolMR,HeavyAtomCount,NumHAcceptors,NumHDonors,NumHeteroatoms,NumRotatableBonds,NumValenceElectrons,NumAromaticRings,NumSaturatedRings,NumAliphaticRings,RingCount,TPSA,LabuteASA,BalabanJ,BertzCT
A-1679,"1,3-diphenylguanidine","InChI=1S/C13H13N3/c14-13(15-11-7-3-1-4-8-11)16-12-9-5-2-6-10-12/h1-10H,(H3,14,15,16)",OWRCNXZUPFZXOS-UHFFFAOYSA-N,NC(Nc1ccccc1)=Nc2ccccc2,-2.1575163862999998,1.067788037075677,8,G4,211.26799999999997,2.7449000000000012,67.78910000000002,16.0,1.0,2.0,3.0,2.0,80.0,2.0,0.0,0.0,2.0,50.41,94.6385148064385,2.0909283750699563,463.0510842985347
A-1680,2-methylpropane-2-thiol,"InChI=1S/C4H10S/c1-4(2,3)5/h5H,1-3H3",WMXCDAVJEZZYLT-UHFFFAOYSA-N,CC(C)(C)S,-1.7878458675,0.0,1,G1,90.19099999999999,1.7147,28.738999999999987,5.0,1.0,1.0,1.0,0.0,32.0,0.0,0.0,0.0,0.0,0.0,38.9891440344211,3.0237157840738176,19.11941547876375
A-1685,"3,3,5-trimethylcyclohexanol","InChI=1S/C9H18O/c1-7-4-8(10)6-9(2,3)5-7/h7-8,10H,4-6H2,1-3H3",BRRVXFOKWJKTGG-UHFFFAOYSA-N,CC1CC(O)CC(C)(C)C1,-1.9916598478999998,0.04695225144999993,2,G3,142.24199999999996,2.1935000000000002,42.80280000000001,10.0,1.0,1.0,1.0,0.0,60.0,0.0,1.0,1.0,1.0,20.23,63.44719054166919,2.509938883631114,105.89667380414838
A-1686,"N,N-dimethylaniline","InChI=1S/C8H11N/c1-9(2)8-6-4-3-5-7-8/h3-7H,1-2H3",JLTDJTHDQAWBAV-UHFFFAOYSA-N,CN(C)c1ccccc1,-1.9220736974000001,0.04109337810000002,2,G3,121.18299999999995,1.7526,40.76900000000002,9.0,1.0,0.0,1.0,1.0,48.0,1.0,0.0,0.0,1.0,3.24,55.92112101849355,2.848234050597751,167.1823264341432
A-1687,"1-chloro-2,5-dimethoxy-4-nitrobenzene","InChI=1S/C8H8ClNO4/c1-13-7-4-6(10(11)12)8(14-2)3-5(7)9/h3-4H,1-2H3",ORLPGMKKCAEWOW-UHFFFAOYSA-N,COc1cc(c(OC)cc1Cl)[N+]([O-])=O,-3.1793123652999995,0.0,1,G1,217.60799999999998,2.2654000000000005,51.21040000000001,14.0,4.0,0.0,6.0,3.0,76.0,1.0,0.0,0.0,1.0,61.6,85.3446197566854,3.3196563058007738,366.60406633371366
A-1688,potassium iodide,InChI=1S/HI.K/h1H;/q;+1/p-1,NLKNQRATVPKPDG-UHFFFAOYSA-M,[K+].[I-],0.935222717,0.09243107310668108,3,G5,166.002,-5.992,0.0,2.0,0.0,0.0,2.0,0.0,8.0,0.0,0.0,0.0,0.0,0.0,73.43483487190015,0.0,2.0
A-1689,"N-octyl-1-{10-[4-(octylimino)-1,4-dihydropyridin-1-yl]decyl}-1,4-dihydropyridin-4-imine dihydrochloride","InChI=1S/C36H62N4.2ClH/c1-3-5-7-9-15-19-27-37-35-23-31-39(32-24-35)29-21-17-13-11-12-14-18-22-30-40-33-25-36(26-34-40)38-28-20-16-10-8-6-4-2;;/h23-26,31-34H,3-22,27-30H2,1-2H3;2*1H",SMGTYJPMKXNQFY-UHFFFAOYSA-N,[H+].[H+].[Cl-].[Cl-].CCCCCCCCN=C1C=CN(CCCCCCCCCCN2C=CC(C=C2)=NCCCCCCCC)C=C1,-1.6427862658,0.0,1,G1,623.8420000000001,3.8660000000000068,175.63599999999946,42.0,4.0,0.0,6.0,25.0,242.0,2.0,0.0,0.0,2.0,34.58,273.9026594507667,-4.202495679629652e-06,874.0964497531619
A-1690,(2E)-3-phenylprop-2-enal,InChI=1S/C9H8O/c10-8-4-7-9-5-2-1-3-6-9/h1-8H/b7-4+,KJPRLNWUNMBNBZ-QPJJXVBHSA-N,O=C/C=C/c1ccccc1,-1.9688182578,0.11882527601619061,3,G5,132.16199999999998,1.8987,41.54000000000002,10.0,1.0,0.0,1.0,2.0,50.0,1.0,0.0,0.0,1.0,17.07,59.998148530546295,2.7587670006154434,223.74339906009686
A-1692,"1,1,2,2,3,3,4,4,4-nonafluoro-N-(2-hydroxyethyl)-N-methylbutane-1-sulfonamide","InChI=1S/C7H8F9NO3S/c1-17(2-3-18)21(19,20)7(15,16)5(10,11)4(8,9)6(12,13)14/h18H,2-3H2,1H3",DSRUAYIFDCHEEV-UHFFFAOYSA-N,CN(CCO)[S](=O)(=O)C(F)(F)C(F)(F)C(F)(F)C(F)(F)F,-3.4036850425,0.0,1,G1,357.1939999999999,1.6660000000000001,49.53160000000001,21.0,3.0,1.0,14.0,6.0,128.0,0.0,0.0,0.0,0.0,57.61,111.73356565535975,6.016497113809933,472.2231763445618
A-1693,"N-[(8E)-1,5-dimethylbicyclo[3.2.1]octan-8-ylidene]hydroxylamine","InChI=1S/C10H17NO/c1-9-4-3-5-10(2,7-6-9)8(9)11-12/h12H,3-7H2,1-2H3",RADAAKRXEPVXBU-UHFFFAOYSA-N,CC12CCCC(C)(CC1)C2=NO,-3.0741522070999996,0.0,1,G1,167.252,2.8069000000000006,48.52050000000003,12.0,2.0,1.0,2.0,0.0,68.0,0.0,2.0,2.0,2.0,32.59,73.65566248787468,2.419585593361867,215.99307854851648
A-1694,N-(4-hydroxyphenyl)acetamide,"InChI=1S/C8H9NO2/c1-6(10)9-7-2-4-8(11)5-3-7/h2-5,11H,1H3,(H,9,10)",RZVAJINKPMORJF-UHFFFAOYSA-N,CC(=O)Nc1ccc(O)cc1,-1.0333232127,0.07931628565664522,3,G5,151.165,1.3505999999999998,42.41050000000002,11.0,2.0,2.0,3.0,1.0,58.0,1.0,0.0,0.0,1.0,49.33,64.66690538413799,2.7362980721056545,253.2994975838911
A-1699,(e)-But-2-enedioate,"InChI=1S/C4H4O4.Fe/c5-3(6)1-2-4(7)8;/h1-2H,(H,5,6)(H,7,8);/q;+2/p-2/b2-1-;",PMVSDNDAUGGCCE-ODZAUARKSA-L,[Fe++].[O-]C(=O)\C=C/C([O-])=O,-2.0840678994,0.0,1,G1,169.90099999999995,-2.9600999999999997,19.153999999999996,9.0,4.0,0.0,5.0,2.0,50.0,0.0,0.0,0.0,0.0,80.25999999999999,61.651606315535425,0.0,123.50306161549236
A-1700,"(2E)-1-(2,6,6-trimethylcyclohex-2-en-1-yl)but-2-en-1-one","InChI=1S/C13H20O/c1-5-7-11(14)12-10(2)8-6-9-13(12,3)4/h5,7-8,12H,6,9H2,1-4H3/b7-5+",CRIGTVCBMUKRSL-FNORWQNLSA-N,C/C=C/C(=O)C1C(=CCCC1(C)C)C,-3.1378557654000003,0.0,1,G1,192.30199999999996,3.5141000000000027,60.08300000000004,14.0,1.0,0.0,1.0,2.0,78.0,0.0,0.0,1.0,1.0,17.07,86.89504128273487,2.9673183494972553,281.6106883094834
A-1701,2-methyl-4-nitroaniline,"InChI=1S/C7H8N2O2/c1-5-4-6(9(10)11)2-3-7(5)8/h2-4H,8H2,1H3",XTTIQGSLJBWVIV-UHFFFAOYSA-N,Cc1cc(ccc1N)[N+]([O-])=O,-3.0361524841,0.0,1,G1,152.153,1.48542,42.24580000000001,11.0,3.0,1.0,4.0,1.0,58.0,1.0,0.0,0.0,1.0,69.16,63.789211653406085,3.1515496683060507,296.4920897763861
A-1702,nonan-1-ol,"InChI=1S/C9H20O/c1-2-3-4-5-6-7-8-9-10/h10H,2-9H2,1H3",ZWRUINPWMLAQRD-UHFFFAOYSA-N,CCCCCCCCCO,-3.0130118711000002,0.4352204596411788,4,G5,144.258,2.7293000000000016,45.078800000000015,10.0,1.0,1.0,1.0,7.0,62.0,0.0,0.0,0.0,0.0,20.23,64.45302169519843,2.6476048489438337,44.68995593589281
A-1703,"dipropyl cyclohexane-1,2-dicarboxylate","InChI=1S/C14H24O4/c1-3-9-17-13(15)11-7-5-6-8-12(11)14(16)18-10-4-2/h11-12H,3-10H2,1-2H3",AGEFUZCBLJQXIA-UHFFFAOYSA-N,CCCOC(=O)C1CCCCC1C(=O)OCCC,-3.2626917327,0.0,1,G1,256.34199999999987,2.699200000000001,67.94800000000005,18.0,4.0,0.0,4.0,6.0,104.0,0.0,1.0,1.0,1.0,52.60000000000001,109.02780202055752,2.552620702925421,246.96755675238103
A-1704,"2-(4-aminophenyl)-6-methyl-1,3-benzothiazole-7-sulfonic acid","InChI=1S/C14H12N2O3S2/c1-8-2-7-11-12(13(8)21(17,18)19)20-14(16-11)9-3-5-10(15)6-4-9/h2-7H,15H2,1H3,(H,17,18,19)",KGZUHYIHYBDNLC-UHFFFAOYSA-N,Cc1ccc2nc(sc2c1[S](O)(=O)=O)c3ccc(N)cc3,-4.3324994616,0.0,1,G1,320.39500000000004,3.10062,84.02000000000001,21.0,5.0,2.0,7.0,2.0,108.0,3.0,0.0,0.0,3.0,93.28,125.36364193010417,2.2791319755010497,928.7575660365774
A-1705,"1,4-dioxacycloheptadecane-5,17-dione",InChI=1S/C15H26O4/c16-14-10-8-6-4-2-1-3-5-7-9-11-15(17)19-13-12-18-14/h1-13H2,XRHCAGNSDHCHFJ-UHFFFAOYSA-N,O=C1CCCCCCCCCCCC(=O)OCCO1,-4.2616951793,0.1677679630832992,4,G5,270.3689999999999,3.377500000000002,72.70500000000006,19.0,4.0,0.0,4.0,0.0,110.0,0.0,1.0,1.0,1.0,52.60000000000001,115.39274413495417,2.216244891666003,236.8711889381276
A-1707,5-chloro-2-(4-chlorophenoxy)phenol,"InChI=1S/C12H8Cl2O2/c13-8-1-4-10(5-2-8)16-12-6-3-9(14)7-11(12)15/h1-7,15H",BYNQFCJOHGOKSS-UHFFFAOYSA-N,Oc1cc(Cl)ccc1Oc2ccc(Cl)cc2,-4.2393931239,0.11887187140489858,3,G5,255.1,4.491300000000002,64.64280000000002,16.0,2.0,1.0,4.0,2.0,82.0,2.0,0.0,0.0,2.0,29.46,103.00280876102724,2.233817117740491,494.87198897978124
A-1708,"(3E)-3,7-dimethylocta-1,3,6-triene","InChI=1S/C10H16/c1-5-10(4)8-6-7-9(2)3/h5,7-8H,1,6H2,2-4H3/b10-8+",IHPKGUQCSIINRJ-CSKARUKUSA-N,CC(C)=CC\C=C(/C)C=C,-3.9729302572000003,0.0,1,G1,136.23799999999997,3.4750000000000023,48.00200000000003,10.0,0.0,0.0,0.0,3.0,56.0,0.0,0.0,0.0,0.0,0.0,63.95492096084625,3.735272764128649,154.8771237954945
A-1710,"tert-butyl 3,5,5-trimethylhexaneperoxoate","InChI=1S/C13H26O3/c1-10(9-12(2,3)4)8-11(14)15-16-13(5,6)7/h10H,8-9H2,1-7H3",VSJBBIJIXZVVLQ-UHFFFAOYSA-N,CC(CC(=O)OOC(C)(C)C)CC(C)(C)C,-4.2100961015,0.0,1,G1,230.34799999999993,3.722100000000003,64.78300000000006,16.0,3.0,0.0,3.0,4.0,96.0,0.0,0.0,0.0,0.0,35.53,99.43646427538465,3.8824280862669087,220.31265564208465
A-1712,"N~2~-(4,6-diamino-1,3,5-triazin-2-yl)-1,3,5-triazine-2,4,6-triamine","InChI=1S/C6H9N11/c7-1-11-2(8)14-5(13-1)17-6-15-3(9)12-4(10)16-6/h(H9,7,8,9,10,11,12,13,14,15,16,17)",YZEZMSPGIPTEBA-UHFFFAOYSA-N,Nc1nc(N)nc(Nc2nc(N)nc(N)n2)n1,-4.2253369782,0.26236641019635515,5,G5,235.215,-1.8710000000000013,60.58629999999997,17.0,11.0,5.0,11.0,2.0,88.0,2.0,0.0,0.0,2.0,193.45,94.71581018289893,2.305198639989204,461.6530739446814
A-1713,butyl 2-({[(2-butoxy-2-oxoethyl)sulfanyl]methyl}sulfanyl)acetate,"InChI=1S/C13H24O4S2/c1-3-5-7-16-12(14)9-18-11-19-10-13(15)17-8-6-4-2/h3-11H2,1-2H3",QCWRDNFBMVSDEY-UHFFFAOYSA-N,CCCCOC(=O)CSCSCC(=O)OCCCC,-4.3430778582,0.0,1,G1,308.4650000000001,3.0969000000000015,81.51700000000005,19.0,6.0,0.0,6.0,12.0,112.0,0.0,0.0,0.0,0.0,52.60000000000001,123.91491111042063,3.2930194743351797,222.79771590833016
A-1714,methyl 1-methyl-4-(propan-2-yl)bicyclo[2.2.2]oct-5-ene-2-carboxylate,"InChI=1S/C14H22O2/c1-10(2)14-7-5-13(3,6-8-14)11(9-14)12(15)16-4/h5,7,10-11H,6,8-9H2,1-4H3",NXAJZPARDMDLKH-UHFFFAOYSA-N,COC(=O)C1CC2(CCC1(C)C=C2)C(C)C,-4.2008661255,0.0,1,G1,222.328,3.1780000000000017,63.87500000000004,16.0,2.0,0.0,2.0,2.0,90.0,0.0,1.0,3.0,3.0,26.3,98.05730050529337,2.3353559949103664,331.62704296885147
A-1715,methylcyclohexane,"InChI=1S/C7H14/c1-7-5-3-2-4-6-7/h7H,2-6H2,1H3",UAEPNZWRGJTJPN-UHFFFAOYSA-N,CC1CCCCC1,-3.8459348013,0.028967400649999808,2,G3,98.18900000000001,2.5866000000000007,32.24899999999998,7.0,0.0,0.0,0.0,0.0,42.0,0.0,1.0,1.0,1.0,0.0,45.92307256067996,2.1229179499593664,42.0
A-1716,2-phenylpropane-2-peroxol,"InChI=1S/C9H12O2/c1-9(2,11-10)8-6-4-3-5-7-8/h3-7,10H,1-2H3",YQHLDYVWEZKEOX-UHFFFAOYSA-N,CC(C)(OO)c1ccccc1,-1.0393798776,0.0,1,G1,152.19299999999998,2.4113000000000007,43.181800000000024,11.0,2.0,1.0,2.0,2.0,60.0,1.0,0.0,0.0,1.0,29.46,66.36330376012798,2.9284445313943723,216.26415929370793
A-1718,7-oxabicyclo[4.1.0]heptan-3-ylmethyl 7-oxabicyclo[4.1.0]heptane-3-carboxylate,"InChI=1S/C14H20O4/c15-14(9-2-4-11-13(6-9)18-11)16-7-8-1-3-10-12(5-8)17-10/h8-13H,1-7H2",YXALYBMHAYZKAP-UHFFFAOYSA-N,O=C(OCC1CCC2OC2C1)C3CCC4OC4C3,-1.2604846902,0.0,1,G1,252.30999999999995,1.6645999999999999,62.96300000000005,18.0,4.0,0.0,4.0,3.0,100.0,0.0,4.0,4.0,4.0,51.36,106.96233168943293,1.2253013720397457,355.70315432217836
A-1720,dimethyl carbonate,InChI=1S/C3H6O3/c1-5-3(4)6-2/h1-2H3,IEJIGPNLZYLLBP-UHFFFAOYSA-N,COC(=O)OC,0.1852603514,0.04015783425,2,G3,90.078,0.3992,19.413999999999994,6.0,3.0,0.0,3.0,0.0,36.0,0.0,0.0,0.0,0.0,35.53,35.8577478156803,2.9881608821342693,44.0
A-1723,cyclohexyl 2-methylprop-2-enoate,"InChI=1S/C10H16O2/c1-8(2)10(11)12-9-6-4-3-5-7-9/h9H,1,3-7H2,2H3",OIWOHHBRDFKZNC-UHFFFAOYSA-N,CC(=C)C(=O)OC1CCCCC1,-3.0885648226,0.006751235200000094,2,G3,168.23599999999996,2.4384000000000006,47.779000000000025,12.0,2.0,0.0,2.0,2.0,68.0,0.0,1.0,1.0,1.0,26.3,73.60336320123619,2.2910093347547615,178.27760081648816
A-1726,2-phenylethyl propanoate,"InChI=1S/C11H14O2/c1-2-11(12)13-9-8-10-6-4-3-5-7-10/h3-7H,2,8-9H2,1H3",HVGZQCSMLUDISR-UHFFFAOYSA-N,CCC(=O)OCCc1ccccc1,-3.1174443354,0.0,1,G1,178.23100000000002,2.1822999999999997,51.396000000000036,13.0,2.0,0.0,2.0,4.0,70.0,1.0,0.0,0.0,1.0,26.3,78.53118102103066,2.2413765431693933,254.05260581186823
A-1727,benzyl butanoate,"InChI=1S/C11H14O2/c1-2-6-11(12)13-9-10-7-4-3-5-8-10/h3-5,7-8H,2,6,9H2,1H3",VONGZNXBKCOUHB-UHFFFAOYSA-N,CCCC(=O)OCc1ccccc1,-3.1174443354,0.15834354920000004,2,G3,178.231,2.5299000000000005,51.146000000000036,13.0,2.0,0.0,2.0,4.0,70.0,1.0,0.0,0.0,1.0,26.3,78.53118102103066,2.310042822879905,254.05260581186823
A-1728,2-amino-5-acetamidobenzene-1-sulfonic acid,"InChI=1S/C8H10N2O4S/c1-5(11)10-6-2-3-7(9)8(4-6)15(12,13)14/h2-4H,9H2,1H3,(H,10,11)(H,12,13,14)",PHRVJZNHPVJYOM-UHFFFAOYSA-N,CC(=O)Nc1ccc(N)c(c1)[S](O)(=O)=O,-1.2318564393,0.0,1,G1,230.245,0.47390000000000004,54.97270000000001,15.0,4.0,3.0,7.0,2.0,82.0,1.0,0.0,0.0,1.0,109.49000000000001,86.84119833899531,3.231502193499952,495.36317528103757
A-1729,(aminooxy)sulfonic acid,"InChI=1S/H3NO4S/c1-5-6(2,3)4/h1H2,(H,2,3,4)",DQPBABKTKYNPMH-UHFFFAOYSA-N,NO[S](O)(=O)=O,0.0752827195,0.0,1,G1,113.09399999999998,-1.3204999999999996,16.821,6.0,4.0,2.0,6.0,1.0,38.0,0.0,0.0,0.0,0.0,89.62,34.61942322552916,3.850621638983669,109.50977500432694
A-1730,(3Z)-hex-3-en-1-yl methyl carbonate,"InChI=1S/C8H14O3/c1-3-4-5-6-7-11-8(9)10-2/h4-5H,3,6-7H2,1-2H3/b5-4+",BLOXMGXSDAAJGX-SNAWJCMRSA-N,CC/C=C/CCOC(=O)OC,-3.0698306477,0.0,1,G1,158.197,2.1257,42.405000000000015,11.0,3.0,0.0,3.0,4.0,64.0,0.0,0.0,0.0,0.0,35.53,66.99285535547907,3.1387848595791468,129.2988603028468
A-1734,bicyclo[2.2.1]hept-2-ene,"InChI=1S/C7H10/c1-2-7-4-3-6(1)5-7/h1-2,6-7H,3-5H2",JFNLZVQOOSMTJK-UHFFFAOYSA-N,C1CC2CC1C=C2,-2.8477212054,0.0,1,G1,94.15699999999998,1.9725,29.970999999999986,7.0,0.0,0.0,0.0,0.0,38.0,0.0,1.0,2.0,2.0,0.0,44.227638374966475,2.2712003045102303,90.60593781761291
A-1735,"2,4-dimethyl-1-nitrobenzene","InChI=1S/C8H9NO2/c1-6-3-4-8(9(10)11)7(2)5-6/h3-5H,1-2H3",BBUPBICWUURTNP-UHFFFAOYSA-N,Cc1ccc(c(C)c1)[N+]([O-])=O,-3.0555996074,0.0,1,G1,151.165,2.21164,42.57040000000002,11.0,2.0,0.0,3.0,1.0,58.0,1.0,0.0,0.0,1.0,43.14,64.81426307078998,3.1960696621259204,294.1435742307894
A-1736,"2-(1,3-benzothiazol-2-ylsulfanyl)acetic acid","InChI=1S/C9H7NO2S2/c11-8(12)5-13-9-10-6-3-1-2-4-7(6)14-9/h1-4H,5H2,(H,11,12)",ZZUQWNYNSKJLPI-UHFFFAOYSA-N,OC(=O)CSc1sc2ccccc2n1,-3.2288979848,0.0,1,G1,225.294,2.4730000000000008,57.97980000000002,14.0,4.0,1.0,5.0,3.0,72.0,2.0,0.0,0.0,2.0,50.19,88.78182900898841,2.224690446790446,433.5348231638525
A-1740,3-(4-tert-butylphenyl)propanal,"InChI=1S/C13H18O/c1-13(2,3)12-8-6-11(7-9-12)5-4-10-14/h6-10H,4-5H2,1-3H3",FZJUFJKVIYFBSY-UHFFFAOYSA-N,CC(C)(C)c1ccc(CCC=O)cc1,-3.1588329056999997,0.0,1,G1,190.28599999999997,3.1156000000000024,59.527000000000044,14.0,1.0,0.0,1.0,3.0,76.0,1.0,0.0,0.0,1.0,17.07,86.147520020317,2.7334971039769465,290.0067560189276
A-1741,"3,5-dinitrobenzoic acid","InChI=1S/C7H4N2O6/c10-7(11)4-1-5(8(12)13)3-6(2-4)9(14)15/h1-3H,(H,10,11)",VYWYYJYRVSBHJQ-UHFFFAOYSA-N,OC(=O)c1cc(cc(c1)[N+]([O-])=O)[N+]([O-])=O,-2.2076497234,0.005724861699999861,2,G3,212.11699999999996,1.2011999999999998,46.7101,15.0,5.0,1.0,8.0,3.0,78.0,1.0,0.0,0.0,1.0,123.58000000000001,82.05805253113294,3.387380075453351,375.7865269397283
A-1743,"N-(2,2,6,6-tetramethylpiperidin-4-yl)-N-{6-[N-(2,2,6,6-tetramethylpiperidin-4-yl)formamido]hexyl}formamide","InChI=1S/C26H50N4O2/c1-23(2)15-21(16-24(3,4)27-23)29(19-31)13-11-9-10-12-14-30(20-32)22-17-25(5,6)28-26(7,8)18-22/h19-22,27-28H,9-18H2,1-8H3",UONLDZHKYCFZRW-UHFFFAOYSA-N,CC1(C)CC(CC(C)(C)N1)N(CCCCCCN(C=O)C2CC(C)(C)NC(C)(C)C2)C=O,-1.5399557687999998,0.0,1,G1,450.7120000000002,4.0820000000000025,132.63940000000002,32.0,4.0,2.0,6.0,11.0,186.0,0.0,2.0,2.0,2.0,64.68,196.79357748839672,1.7433074821037915,543.3164175619862
A-1744,aminothiourea,"InChI=1S/CH5N3S/c2-1(5)4-3/h3H2,(H3,2,4,5)",BRWIZMBXBAOCCF-UHFFFAOYSA-N,NNC(N)=S,-0.8457609068,0.056971676149999984,2,G3,91.139,-1.3067000000000002,24.10850000000001,5.0,2.0,3.0,4.0,0.0,30.0,0.0,0.0,0.0,0.0,64.07,35.29781087290288,2.847378923087672,42.1577218810798
A-1746,"2-(heptan-3-yl)-1,3-dioxolane","InChI=1S/C10H20O2/c1-3-5-6-9(4-2)10-11-7-8-12-10/h9-10H,3-8H2,1-2H3",LQSZQAHPRJMRET-UHFFFAOYSA-N,CCCCC(CC)C1OCCO1,-3.1195968677,0.0,1,G1,172.26799999999994,2.5757000000000003,48.99800000000003,12.0,2.0,0.0,2.0,5.0,72.0,0.0,1.0,1.0,1.0,18.46,75.24498936288354,2.2234055010375444,108.40620687739315
A-1747,2-methyl-2-[(2-methylbutan-2-yl)peroxy]butane,"InChI=1S/C10H22O2/c1-7-9(3,4)11-12-10(5,6)8-2/h7-8H2,1-6H3",JJRDRFZYKKFYMO-UHFFFAOYSA-N,CCC(C)(C)OOC(C)(C)CC,-4.1004353388,0.0,1,G1,174.28399999999993,3.3118000000000016,50.91000000000003,12.0,2.0,0.0,2.0,5.0,74.0,0.0,0.0,0.0,0.0,18.46,76.18011583215107,3.8209130913559317,111.80026905978025
A-1748,"1-(2,6,6-trimethylcyclohex-1-en-1-yl)pent-1-en-3-one","InChI=1S/C14H22O/c1-5-12(15)8-9-13-11(2)7-6-10-14(13,3)4/h8-9H,5-7,10H2,1-4H3/b9-8+",LMWNGLDCJDIIBR-CMDGGOBGSA-N,CCC(=O)/C=C/C1=C(C)CCCC1(C)C,-4.187455475,0.42077374464999995,2,G3,206.32899999999992,4.048300000000003,64.77000000000004,15.0,1.0,0.0,1.0,3.0,84.0,0.0,0.0,1.0,1.0,17.07,93.25998339713148,2.8977630167536708,305.3003900253213
A-1749,"2,2,4-trimethyl-1-[(2-methylpropanoyl)oxy]pentan-3-yl 2-methylpropanoate","InChI=1S/C16H30O4/c1-10(2)13(20-15(18)12(5)6)16(7,8)9-19-14(17)11(3)4/h10-13H,9H2,1-8H3",OMVSWZDEEGIJJI-UHFFFAOYSA-N,CC(C)C(OC(=O)C(C)C)C(C)(C)COC(=O)C(C)C,-4.333139569,0.0,1,G1,286.412,3.4356000000000027,79.13400000000006,20.0,4.0,0.0,4.0,7.0,118.0,0.0,0.0,0.0,0.0,52.6,122.76351740287993,4.79440813789917,329.3685737754052
A-1750,4-(propan-2-yl)cyclohexyl propanoate,"InChI=1S/C12H22O2/c1-4-12(13)14-11-7-5-10(6-8-11)9(2)3/h9-11H,4-8H2,1-3H3",FFEOEKMMMQFWBO-UHFFFAOYSA-N,CCC(=O)OC1CCC(CC1)C(C)C,-4.1734842136,0.0,1,G1,198.30599999999995,3.1544000000000016,56.96700000000005,14.0,2.0,0.0,2.0,3.0,82.0,0.0,1.0,1.0,1.0,26.3,87.02285046221364,2.2517550201186687,178.7607506568605
A-1751,trimethoxy(octyl)silane,"InChI=1S/C11H26O3Si/c1-5-6-7-8-9-10-11-15(12-2,13-3)14-4/h5-11H2,1-4H3",NMEPHPOFYLLFTK-UHFFFAOYSA-N,CCCCCCCC[Si](OC)(OC)OC,-4.2461281993,0.0,1,G1,234.41199999999998,3.2250000000000014,64.96400000000006,15.0,3.0,0.0,4.0,10.0,92.0,0.0,0.0,0.0,0.0,27.69,95.48028069241815,3.5369683994703074,129.53006112046364
A-1753,"3,6,9-triethyl-3,6,9-trimethyl-1,2,4,5,7,8-hexaoxonane","InChI=1S/C12H24O6/c1-7-10(4)13-15-11(5,8-2)17-18-12(6,9-3)16-14-10/h7-9H2,1-6H3",KVWLLOIEGKLBPA-UHFFFAOYSA-N,CCC1(C)OOC(C)(CC)OOC(C)(CC)OO1,-4.3048554438,0.0,1,G1,264.3179999999999,3.223200000000002,62.598000000000056,18.0,6.0,0.0,6.0,3.0,108.0,0.0,1.0,1.0,1.0,55.38000000000001,108.21694045691922,2.8830659131943897,212.49926261033693
A-1756,bis-O-(benzylidene)-D-glucitol,"InChI=1S/C20H20O6/c21-20-12-23-19(14-9-5-2-6-10-14)25-17(20)16-15(26-20)11-22-18(24-16)13-7-3-1-4-8-13/h1-10,15-19,21H,11-12H2/t15-,16+,17-,18?,19?,20+/m1/s1",DAZRYUTWPPBZOY-WUFCDUEQSA-N,O[C@]12COC(O[C@@H]1[C@H]3OC(OC[C@H]3O2)c4ccccc4)c5ccccc5,-4.4379626594,0.0,1,G1,356.374,2.3022,89.83880000000005,26.0,6.0,1.0,6.0,2.0,136.0,2.0,3.0,3.0,5.0,66.38000000000001,150.75250067987656,1.3812327795260029,753.4114276744858
A-1759,"ethyl 5-oxo-1-phenyl-4,5-dihydro-1H-pyrazole-3-carboxylate","InChI=1S/C12H12N2O3/c1-2-17-12(16)10-8-11(15)14(13-10)9-6-4-3-5-7-9/h3-7H,2,8H2,1H3",WBFXQKNQVZMOSQ-UHFFFAOYSA-N,CCOC(=O)C1=NN(C(=O)C1)c2ccccc2,-3.2553454425,0.0,1,G1,232.239,1.3424,62.61300000000003,17.0,4.0,0.0,5.0,3.0,88.0,1.0,0.0,1.0,2.0,58.97,98.67710625824029,2.203521434699209,467.8989022073321
A-1762,oct-7-enal,"InChI=1S/C8H14O/c1-2-3-4-5-6-7-8-9/h2,8H,1,3-7H2",LIINGNMKNRSOGW-UHFFFAOYSA-N,C=CCCCCCC=O,-1.9972521926,0.0,1,G1,126.19899999999998,2.3218000000000005,39.346000000000004,9.0,1.0,0.0,1.0,6.0,52.0,0.0,0.0,0.0,0.0,17.07,56.76576489646532,2.7360228770128336,66.63682062300136
A-1764,diphenylacetic acid,"InChI=1S/C14H12O2/c15-14(16)13(11-7-3-1-4-8-11)12-9-5-2-6-10-12/h1-10,13H,(H,15,16)",PYHXGXCGESYPCW-UHFFFAOYSA-N,OC(=O)C(c1ccccc1)c2ccccc2,-3.2230398856,0.0,1,G1,212.24800000000002,2.903100000000001,62.362800000000036,16.0,1.0,1.0,2.0,3.0,80.0,2.0,0.0,0.0,2.0,37.3,94.174137406594,2.4372651795739144,423.1087192277259
A-1769,isopropyl chlorocarbonate,"InChI=1S/C4H7ClO2/c1-3(2)7-4(5)6/h3H,1-2H3",IVRIRQXJSNCSPQ-UHFFFAOYSA-N,CC(C)OC(Cl)=O,-0.9882911293000001,0.0,1,G1,122.551,1.7702,27.469999999999988,7.0,2.0,0.0,3.0,1.0,42.0,0.0,0.0,0.0,0.0,26.3,47.41241092745169,3.126006652390634,70.09004635215048
A-1770,sodium 2-hydroxybenzoate,"InChI=1S/C7H6O3.Na/c8-6-4-2-1-3-5(6)7(9)10;/h1-4,8H,(H,9,10);/q;+1/p-1",ABBQHOQBGMUPJH-UHFFFAOYSA-M,[Na+].Oc1ccccc1C([O-])=O,-0.10749216939999999,0.45240475724443485,4,G5,160.10399999999996,-3.2402999999999986,32.43729999999999,11.0,3.0,1.0,4.0,1.0,52.0,1.0,0.0,0.0,1.0,60.36,85.95973446104132,9.999998370000272e-07,259.6175282804537
A-1772,1-phenylvinyl acetate,"InChI=1S/C10H10O2/c1-8(12-9(2)11)10-6-4-3-5-7-10/h3-7H,1H2,2H3",HWCUCNKPBMGSSC-UHFFFAOYSA-N,CC(=O)OC(=C)c1ccccc1,-2.1135953878000002,0.0,1,G1,162.18800000000002,2.2203999999999997,47.242000000000026,12.0,2.0,0.0,2.0,2.0,62.0,1.0,0.0,0.0,1.0,26.3,71.47663587444978,2.725078186491341,287.9667060215555