ID,Name,InChI,InChIKey,SMILES,Solubility,SD,Ocurrences,Group,MolWt,MolLogP,MolMR,HeavyAtomCount,NumHAcceptors,NumHDonors,NumHeteroatoms,NumRotatableBonds,NumValenceElectrons,NumAromaticRings,NumSaturatedRings,NumAliphaticRings,RingCount,TPSA,LabuteASA,BalabanJ,BertzCT
A-2106,2-[(2-hydroxyethyl)(octadecyl)amino]ethan-1-ol,"InChI=1S/C22H47NO2/c1-2-3-4-5-6-7-8-9-10-11-12-13-14-15-16-17-18-23(19-21-24)20-22-25/h24-25H,2-22H2,1H3",NDLNTMNRNCENRZ-UHFFFAOYSA-N,CCCCCCCCCCCCCCCCCCN(CCO)CCO,-5.7752741916999994,0.0,1,G1,357.62300000000005,5.534500000000007,110.15760000000009,25.0,3.0,2.0,3.0,21.0,152.0,0.0,0.0,0.0,0.0,43.7,157.75133660475376,3.1327607939821114,230.0671091689631
A-2110,(10Z)-1-oxacycloheptadec-10-en-2-one,"InChI=1S/C16H28O2/c17-16-14-12-10-8-6-4-2-1-3-5-7-9-11-13-15-18-16/h1,3H,2,4-15H2/b3-1-",QILMAYXCYBTEDM-IWQZZHSRSA-N,O=C1CCCCCCC\C=C/CCCCCCO1,-5.629397554600001,0.0,1,G1,252.39799999999994,4.780600000000004,75.50300000000006,18.0,2.0,0.0,2.0,0.0,104.0,0.0,0.0,1.0,1.0,26.3,111.79301588761585,2.168809346986403,211.25145951469784
A-2113,"methyl 2-amino-4-[(2,5-dichlorophenyl)carbamoyl]benzoate","InChI=1S/C15H12Cl2N2O3/c1-22-15(21)10-4-3-9(7-13(10)18)19-14(20)11-6-8(16)2-5-12(11)17/h2-7H,18H2,1H3,(H,19,20)",PDWBHZYCNIOXCB-UHFFFAOYSA-N,COC(=O)c1ccc(NC(=O)c2cc(Cl)ccc2Cl)cc1N,-5.7900649855,0.0,1,G1,339.17800000000005,3.6145000000000014,86.60910000000001,22.0,4.0,2.0,7.0,3.0,114.0,2.0,0.0,0.0,2.0,81.42,136.51619843272934,2.236680792383185,747.562573088626
A-2115,1-{[3-(triethoxysilyl)propyl]sulfanyl}octan-1-one,"InChI=1S/C17H36O4SSi/c1-5-9-10-11-12-14-17(18)22-15-13-16-23(19-6-2,20-7-3)21-8-4/h5-16H2,1-4H3",JPPLPDOXWBVPCW-UHFFFAOYSA-N,CCCCCCCC(=O)SCCC[Si](OCC)(OCC)OCC,-5.8326804614,1.3589966208499997,2,G2,364.6240000000002,5.045200000000005,100.89700000000008,23.0,5.0,0.0,6.0,16.0,138.0,0.0,0.0,0.0,0.0,44.760000000000005,147.9545655042068,3.9259474554365448,272.7473823146275
A-2117,"1,1':3',1''-terphenyl-2'-ol","InChI=1S/C18H14O/c19-18-16(14-8-3-1-4-9-14)12-7-13-17(18)15-10-5-2-6-11-15/h1-13,19H",ATGFTMUSEPZNJD-UHFFFAOYSA-N,Oc1c(cccc1c2ccccc2)c3ccccc3,-5.6839101049,0.0,1,G1,246.30900000000003,4.726200000000004,78.97880000000005,19.0,1.0,1.0,1.0,2.0,92.0,3.0,0.0,0.0,3.0,20.23,112.33982528382106,2.1529889837491285,614.8173163228438
A-2118,"(5E)-5-[(4-chlorophenyl)methylidene]-2,2-dimethylcyclopentan-1-one","InChI=1S/C14H15ClO/c1-14(2)8-7-11(13(14)16)9-10-3-5-12(15)6-4-10/h3-6,9H,7-8H2,1-2H3/b11-9+",DHZKFHRKOKWCKA-PKNBQFBNSA-N,CC1(C)CC\C(=C/c2ccc(Cl)cc2)C1=O,-5.6715911936,0.0,1,G1,234.726,4.112500000000003,67.45100000000004,16.0,1.0,0.0,2.0,1.0,84.0,1.0,1.0,1.0,2.0,17.07,101.1202941758818,2.2641797357477587,440.3080752261015
A-2119,"2-{[3,3-bis(3-tert-butyl-4-hydroxyphenyl)butanoyl]oxy}ethyl 3,3-bis(3-tert-butyl-4-hydroxyphenyl)butanoate","InChI=1S/C50H66O8/c1-45(2,3)35-25-31(15-19-39(35)51)49(13,32-16-20-40(52)36(26-32)46(4,5)6)29-43(55)57-23-24-58-44(56)30-50(14,33-17-21-41(53)37(27-33)47(7,8)9)34-18-22-42(54)38(28-34)48(10,11)12/h15-22,25-28,51-54H,23-24,29-30H2,1-14H3",JOWXNCPELQZFHF-UHFFFAOYSA-N,CC(C)(C)c1cc(ccc1O)C(C)(CC(=O)OCCOC(=O)CC(C)(c2ccc(O)c(c2)C(C)(C)C)c3ccc(O)c(c3)C(C)(C)C)c4ccc(O)c(c4)C(C)(C)C,-6.2014353624,0.0,1,G1,795.07,10.877799999999992,231.2871999999992,58.0,8.0,4.0,8.0,11.0,314.0,4.0,0.0,0.0,4.0,133.52,345.81825037988614,1.59590031435355,1852.79240546497
A-2122,"(1-methylethyl)-1,1'-biphenyl","InChI=1S/C15H16/c1-12(2)13-8-10-15(11-9-13)14-6-4-3-5-7-14/h3-12H,1-2H3",KWSHGRJUSUJPQD-UHFFFAOYSA-N,CC(C)c1ccc(cc1)c2ccccc2,-5.609857774299999,0.1391421917977879,3,G5,196.29299999999998,4.477000000000004,65.96700000000004,15.0,0.0,0.0,0.0,2.0,76.0,2.0,0.0,0.0,2.0,0.0,91.58332366875082,2.3212483183989283,409.55111534016135
A-2126,"4-[(4-amino-3,5-diethylphenyl)methyl]-2,6-diethylaniline","InChI=1S/C21H30N2/c1-5-16-10-14(11-17(6-2)20(16)22)9-15-12-18(7-3)21(23)19(8-4)13-15/h10-13H,5-9,22-23H2,1-4H3",NWIVYGKSHSJHEF-UHFFFAOYSA-N,CCc1cc(Cc2cc(CC)c(N)c(CC)c2)cc(CC)c1N,-5.8485879471,0.0,1,G1,310.48500000000007,4.691400000000003,102.02680000000005,23.0,2.0,2.0,2.0,6.0,124.0,2.0,0.0,0.0,2.0,52.04,140.45275774915592,2.425750084259508,576.7263045116879
A-2129,2-[4-(2-{4-[2-(prop-2-enoyloxy)ethoxy]phenyl}propan-2-yl)phenoxy]ethyl prop-2-enoate,"InChI=1S/C25H28O6/c1-5-23(26)30-17-15-28-21-11-7-19(8-12-21)25(3,4)20-9-13-22(14-10-20)29-16-18-31-24(27)6-2/h5-14H,1-2,15-18H2,3-4H3",XWUNIDGEMNBBAQ-UHFFFAOYSA-N,CC(C)(c1ccc(OCCOC(=O)C=C)cc1)c2ccc(OCCOC(=O)C=C)cc2,-5.9994816029999996,0.0,1,G1,424.4930000000002,4.228500000000004,118.31400000000006,31.0,6.0,0.0,6.0,12.0,164.0,2.0,0.0,0.0,2.0,71.06,182.63076386646344,1.897749061133072,807.7331652105435
A-2131,"Benzenamine, N-phenyl-, styrenated","InChI=1S/C28H27N/c1-21(23-9-5-3-6-10-23)25-13-17-27(18-14-25)29-28-19-15-26(16-20-28)22(2)24-11-7-4-8-12-24/h3-22,29H,1-2H3",BRWSDEFCJGIRLV-UHFFFAOYSA-N,CC(c1ccccc1)c2ccc(Nc3ccc(cc3)C(C)c4ccccc4)cc2,-5.9641687617,0.0,1,G1,377.53100000000006,7.733800000000007,124.08470000000003,29.0,1.0,1.0,1.0,6.0,144.0,4.0,0.0,0.0,4.0,12.03,173.61231637888346,1.4287919863650238,932.165538323895
A-2132,"1,3-dimethyl-5-propylbenzene; 6,6,22,22-tetrabutyloctapentacontane; anthracene; phenylbenzene; tetraheptacontane","InChI=1S/2C74H150.C14H10.C12H10.C11H16/c1-7-13-19-20-21-22-23-24-25-26-27-28-29-30-31-32-33-34-35-36-37-38-39-40-41-42-43-44-46-49-53-56-59-63-71-74(67-17-11-5,68-18-12-6)72-64-60-57-54-51-48-45-47-50-52-55-58-62-70-73(65-15-9-3,66-16-10-4)69-61-14-8-2;1-3-5-7-9-11-13-15-17-19-21-23-25-27-29-31-33-35-37-39-41-43-45-47-49-51-53-55-57-59-61-63-65-67-69-71-73-74-72-70-68-66-64-62-60-58-56-54-52-50-48-46-44-42-40-38-36-34-32-30-28-26-24-22-20-18-16-14-12-10-8-6-4-2;1-2-6-12-10-14-8-4-3-7-13(14)9-11(12)5-1;1-3-7-11(8-4-1)12-9-5-2-6-10-12;1-4-5-11-7-9(2)6-10(3)8-11/h7-72H2,1-6H3;3-74H2,1-2H3;1-10H;1-10H;6-8H,4-5H2,1-3H3",UPDSRWJBVPKSST-UHFFFAOYSA-N,CCCCCCCCCCCCCCCCCCCCCCCCCCCCCCCCCCCCCCCCCCCCCCCCCCCCCCCCCCCCCCCCCCCCCCCCCC.CCCCCCCCCCCCCCCCCCCCCCCCCCCCCCCCCCCCC(CCCC)(CCCC)CCCCCCCCCCCCCCCC(CCCC)(CCCC)CCCCC.CCCc1cc(C)cc(C)c1.c2ccc(cc2)c3ccccc3.c4ccc5cc6ccccc6cc5c4,-6.8063026109,0.5972571709500003,2,G2,2560.7229999999945,68.54113999999966,850.6470000000047,185.0,0.0,0.0,0.0,141.0,1076.0,6.0,0.0,0.0,6.0,0.0,1165.8254829179602,9.592920685926263e-07,3977.4450416239624
A-2135,"2,6-diethylanthracene; 9,9-dipropylicosane; tricosane","InChI=1S/C26H54.C23H48.C18H18/c1-5-9-11-13-15-16-17-19-21-25-26(22-7-3,23-8-4)24-20-18-14-12-10-6-2;1-3-5-7-9-11-13-15-17-19-21-23-22-20-18-16-14-12-10-8-6-4-2;1-3-13-5-7-15-12-18-10-14(4-2)6-8-16(18)11-17(15)9-13/h5-25H2,1-4H3;3-23H2,1-2H3;5-12H,3-4H2,1-2H3",XIJNZQQUHMHCIW-UHFFFAOYSA-N,CCCCCCCCCCCCCCCCCCCCCCC.CCCCCCCCCCCC(CCC)(CCC)CCCCCCCC.CCc1ccc2cc3cc(CC)ccc3cc2c1,-6.3644088649,0.5972571708999999,2,G2,925.6969999999994,24.580600000000036,310.601,67.0,0.0,0.0,0.0,43.0,388.0,3.0,0.0,0.0,3.0,0.0,422.1483265530457,5.085029704976383e-07,1372.1698401021797
A-2136,2-ethylhexyl benzoate,"InChI=1S/C15H22O2/c1-3-5-9-13(4-2)12-17-15(16)14-10-7-6-8-11-14/h6-8,10-11,13H,3-5,9,12H2,1-2H3",UADWUILHKRXHMM-UHFFFAOYSA-N,CCCCC(CC)COC(=O)c1ccccc1,-5.767784581,0.0,1,G1,234.339,4.059800000000004,70.03050000000005,17.0,2.0,0.0,2.0,7.0,94.0,1.0,0.0,0.0,1.0,26.3,103.9909494786171,2.362420164809228,318.9535215198018
A-2137,"3,3,5-trimethylcyclohexyl 2-hydroxybenzoate","InChI=1S/C16H22O3/c1-11-8-12(10-16(2,3)9-11)19-15(18)13-6-4-5-7-14(13)17/h4-7,11-12,17H,8-10H2,1-3H3",WSSJONWNBBTCMG-UHFFFAOYSA-N,CC1CC(CC(C)(C)C1)OC(=O)c2ccccc2O,-5.816819421799999,0.0,1,G1,262.349,3.763800000000004,74.10630000000005,19.0,3.0,1.0,3.0,2.0,104.0,1.0,1.0,1.0,2.0,46.53,114.1442941916805,2.0508210540811196,464.8167793881726
A-2138,"5,9-diethylhexadecane; anthracene; icosane","InChI=1S/2C20H42.C14H10/c1-5-9-11-12-13-16-20(8-4)18-14-17-19(7-3)15-10-6-2;1-3-5-7-9-11-13-15-17-19-20-18-16-14-12-10-8-6-4-2;1-2-6-12-10-14-8-4-3-7-13(14)9-11(12)5-1/h19-20H,5-18H2,1-4H3;3-20H2,1-2H3;1-10H",KESSGIXNZDGGFC-UHFFFAOYSA-N,CCCCCCCCCCCCCCCCCCCC.CCCCCCCC(CC)CCCC(CC)CCCC.c1ccc2cc3ccccc3cc2c1,-6.2691310175,0.5972571709500003,2,G2,743.3460000000002,19.800799999999988,250.22199999999884,54.0,0.0,0.0,0.0,32.0,310.0,3.0,0.0,0.0,3.0,0.0,339.40407906589013,4.097646947820834e-07,1051.8482014232666
A-2140,"methyl 4-[(2,5-dichlorophenyl)carbamoyl]-2-nitrobenzoate","InChI=1S/C15H10Cl2N2O5/c1-24-15(21)10-4-2-8(6-13(10)19(22)23)14(20)18-12-7-9(16)3-5-11(12)17/h2-7H,1H3,(H,18,20)",BVBSCSYCFCDVEU-UHFFFAOYSA-N,COC(=O)c1ccc(cc1[N+]([O-])=O)C(=O)Nc2cc(Cl)ccc2Cl,-5.965154646,0.0,1,G1,369.1600000000001,3.940500000000002,88.85110000000002,24.0,5.0,1.0,9.0,4.0,124.0,2.0,0.0,0.0,2.0,98.53999999999999,145.82928345821642,2.3613597422481107,838.6092784121422
A-2142,"3,7-dimethyloct-6-en-1-yl (2E)-2-methylbut-2-enoate","InChI=1S/C15H26O2/c1-6-14(5)15(16)17-11-10-13(4)9-7-8-12(2)3/h6,8,13H,7,9-11H2,1-5H3/b14-6+",UCFQYMKLDPWFHZ-MKMNVTDBSA-N,C\C=C(/C)C(=O)OCCC(C)CCC=C(C)C,-5.7917926889,0.0,1,G1,238.37099999999995,4.268400000000004,72.83600000000006,17.0,2.0,0.0,2.0,7.0,98.0,0.0,0.0,0.0,0.0,26.3,105.74430189456419,3.6796365070516837,283.2969451036391
A-2143,"3,3,4,4,5,5,6,6,7,7,8,8,8-tridecafluorooctyl 2-methylprop-2-enoate","InChI=1S/C12H9F13O2/c1-5(2)6(26)27-4-3-7(13,14)8(15,16)9(17,18)10(19,20)11(21,22)12(23,24)25/h1,3-4H2,2H3",CDXFIRXEAJABAZ-UHFFFAOYSA-N,CC(=C)C(=O)OCCC(F)(F)C(F)(F)C(F)(F)C(F)(F)C(F)(F)C(F)(F)F,-6.058168845700001,0.47712125474999967,2,G3,432.17599999999993,5.234600000000002,61.18,27.0,2.0,0.0,15.0,8.0,160.0,0.0,0.0,0.0,0.0,26.3,141.49103882159966,5.8047502879384645,576.3343060906911
A-2145,"1-(4-{[4-(2,5-dioxo-2,5-dihydro-1H-pyrrol-1-yl)phenyl]methyl}phenyl)-2,5-dihydro-1H-pyrrole-2,5-dione","InChI=1S/C21H14N2O4/c24-18-9-10-19(25)22(18)16-5-1-14(2-6-16)13-15-3-7-17(8-4-15)23-20(26)11-12-21(23)27/h1-12H,13H2",XQUPVDVFXZDTLT-UHFFFAOYSA-N,O=C1C=CC(=O)N1c2ccc(Cc3ccc(cc3)N4C(=O)C=CC4=O)cc2,-5.9980085438,0.0,1,G1,358.3530000000001,2.1361999999999997,98.95600000000005,27.0,4.0,0.0,6.0,4.0,132.0,2.0,0.0,2.0,4.0,74.76,154.5478637242853,1.465397906726139,897.6520651109073
A-2147,tetradecan-1-ol,"InChI=1S/C14H30O/c1-2-3-4-5-6-7-8-9-10-11-12-13-14-15/h15H,2-14H2,1H3",HLZKNKRTKFSKGZ-UHFFFAOYSA-N,CCCCCCCCCCCCCCO,-5.787142557,0.30161849534592655,7,G5,214.39299999999994,4.679800000000005,68.16380000000005,15.0,1.0,1.0,1.0,12.0,92.0,0.0,0.0,0.0,0.0,20.23,96.2777322671815,2.8079257388805243,89.51182269698971
A-2149,diphenyl 4-(propan-2-yl)phenyl phosphate phenyl bis[4-(propan-2-yl)phenyl] phosphate triphenyl phosphate tris[4-(propan-2-yl)phenyl] phosphate,"InChI=1S/C27H33O4P/c1-19(2)22-7-13-25(14-8-22)29-32(28,30-26-15-9-23(10-16-26)20(3)4)31-27-17-11-24(12-18-27)21(5)6/h7-21H,1-6H3",ANVREEJNGJMLOV-UHFFFAOYSA-N,CC(C)c1ccc(O[P](=O)(Oc2ccc(cc2)C(C)C)Oc3ccc(cc3)C(C)C)cc1,-6.1371343953999995,0.02307606219999947,2,G3,452.5310000000002,8.701700000000004,131.08350000000002,32.0,4.0,0.0,5.0,9.0,170.0,3.0,0.0,0.0,3.0,44.760000000000005,191.72031692419023,1.8665041806686111,899.8212602767087
A-2150,trichloro(octyl)stannane,"InChI=1S/C8H17.3ClH.Sn/c1-3-5-7-8-6-4-2;;;;/h1,3-8H2,2H3;3*1H;/q;;;;+3/p-3",INTLMJZQCBRQAT-UHFFFAOYSA-K,CCCCCCCC[Sn](Cl)(Cl)Cl,-6.0107803553,0.0,1,G1,338.294,5.002200000000004,61.496000000000045,12.0,0.0,0.0,4.0,7.0,74.0,0.0,0.0,0.0,0.0,0.0,90.97638677574533,3.009208079324262,100.96632017383187
A-2151,"N-(1,3-benzothiazol-2-ylsulfanyl)cyclohexanamine","InChI=1S/C13H16N2S2/c1-2-6-10(7-3-1)15-17-13-14-11-8-4-5-9-12(11)16-13/h4-5,8-10,15H,1-3,6-7H2",DEQZTKGFXNUBJL-UHFFFAOYSA-N,C1CCC(CC1)NSc2sc3ccccc3n2,-5.9171426800999996,0.12348498678442424,3,G5,264.41900000000004,4.225700000000003,75.48570000000004,17.0,4.0,1.0,4.0,3.0,90.0,2.0,1.0,1.0,3.0,24.92,109.96525015504238,1.6372019750951292,455.88004875061137
A-2152,copper,InChI=1S/Cu,RYGMFSIKBFXOCR-UHFFFAOYSA-N,[Cu],-5.2979382401,1.2785963476425406,4,G4,63.546,-0.0025,0.0,1.0,0.0,0.0,1.0,0.0,11.0,0.0,0.0,0.0,0.0,0.0,17.964098032124472,0.0,0.0
A-2154,"3-[(7Z)-pentadec-7-en-1-yl]phenol; 3-[(7Z,10Z)-pentadeca-7,10,14-trien-1-yl]phenol; 3-[(7Z,10Z)-pentadeca-7,10-dien-1-yl]phenol; 3-pentadecylphenol","InChI=1S/C21H36O.C21H34O.C21H32O.C21H30O/c4*1-2-3-4-5-6-7-8-9-10-11-12-13-14-16-20-17-15-18-21(22)19-20/h15,17-19,22H,2-14,16H2,1H3;8-9,15,17-19,22H,2-7,10-14,16H2,1H3;5-6,8-9,15,17-19,22H,2-4,7,10-14,16H2,1H3;2,5-6,8-9,15,17-19,22H,1,3-4,7,10-14,16H2/b;9-8-;2*6-5-,9-8-",BQLBNJKYLGWYQM-ZWUGTYOTSA-N,CCCCCCCCCCCCCCCc1cccc(O)c1.CCCCCCC\C=C/CCCCCCc2cccc(O)c2.CCCC/C=C\C\C=C/CCCCCCc3cccc(O)c3.Oc4cccc(CCCCCC\C=C/C/C=C\CCC=C)c4,-6.5970388257,0.24371987575000054,2,G3,1205.976,26.759600000000063,389.45920000000166,88.0,4.0,4.0,4.0,51.0,492.0,4.0,0.0,0.0,4.0,80.92,542.5560228777515,5.866666548398991e-07,2280.0125966889395
A-2155,N-(2-ethoxyphenyl)-N'-(2-ethylphenyl)ethanediamide,"InChI=1S/C18H20N2O3/c1-3-13-9-5-6-10-14(13)19-17(21)18(22)20-15-11-7-8-12-16(15)23-4-2/h5-12H,3-4H2,1-2H3,(H,19,21)(H,20,22)",YIMHRDBSVCPJOV-UHFFFAOYSA-N,CCOc1ccccc1NC(=O)C(=O)Nc2ccccc2CC,-6.0175466725,0.0,1,G1,312.3690000000001,3.2249000000000017,90.69040000000004,23.0,3.0,2.0,5.0,5.0,120.0,2.0,0.0,0.0,2.0,67.42999999999999,135.2144638087512,2.074000729231524,698.1709828705707
A-2157,oxacyclohexadecan-2-one,InChI=1S/C15H28O2/c16-15-13-11-9-7-5-3-1-2-4-6-8-10-12-14-17-15/h1-14H2,FKUPPRZPSYCDRS-UHFFFAOYSA-N,O=C1CCCCCCCCCCCCCCO1,-5.9037897228,0.7248168605810893,3,G4,240.38699999999992,4.614500000000004,70.98000000000006,17.0,2.0,0.0,2.0,0.0,100.0,0.0,1.0,1.0,1.0,26.3,106.1176768054035,2.1124110421554065,171.36084112383594
A-2158,"2,2'-vinylenebis[5-methylbenzoxazole]","InChI=1S/C18H14N2O2/c1-11-3-5-15-13(9-11)19-17(21-15)7-8-18-20-14-10-12(2)4-6-16(14)22-18/h3-10H,1-2H3/b8-7+",VKRZNAWSCAUDRQ-BQYQJAHWSA-N,Cc1ccc2oc(\C=C\c3oc4ccc(C)cc4n3)nc2c1,-6.0004819491,0.0,1,G1,290.322,4.756240000000004,86.42000000000002,22.0,4.0,0.0,4.0,2.0,108.0,4.0,0.0,0.0,4.0,52.06,126.64994630448027,1.6826991962173294,926.4580098392107
A-2162,aluminium(3+) ion tris(N-nitroso-N-oxidoaniline),InChI=1S/3C6H5N2O2.Al/c3*9-7-8(10)6-4-2-1-3-5-6;/h3*1-5H;/q3*-1;+3,PMSRCBOGDIMQAT-UHFFFAOYSA-N,[Al+3].[O-]N(N=O)c1ccccc1.[O-]N(N=O)c2ccccc2.[O-]N(N=O)c3ccccc3,-6.1946491089,0.0,1,G1,438.3360000000001,4.635800000000003,120.003,31.0,9.0,0.0,13.0,6.0,156.0,3.0,0.0,0.0,3.0,167.19,186.94968860969863,4.28571424877551e-07,760.7996874029737
A-2167,"N,N-diethyl-4-[(E)-2-phenyldiazen-1-yl]aniline","InChI=1S/C16H19N3/c1-3-19(4-2)16-12-10-15(11-13-16)18-17-14-8-6-5-7-9-14/h5-13H,3-4H2,1-2H3",SJJISKLXUJVZOA-UHFFFAOYSA-N,CCN(CC)c1ccc(cc1)N=Nc2ccccc2,-5.9821152675,0.0,1,G1,253.34900000000002,4.948200000000004,80.62100000000004,19.0,3.0,0.0,3.0,5.0,98.0,2.0,0.0,0.0,2.0,27.96,114.1548772978399,2.086339079358203,513.4501262125178
A-2168,neodymium(3+) ion trifluoride,InChI=1S/3FH.Nd/h3*1H;/q;;;+3/p-3,XRADHEAKQRNYQQ-UHFFFAOYSA-K,[F-].[F-].[F-].[Nd+3],-5.8937682366,1.0128175529705463,4,G4,201.234,-8.988,0.0,4.0,0.0,0.0,4.0,0.0,25.0,0.0,0.0,0.0,0.0,0.0,54.58397386994124,-0.0,3.2451124978365313
A-2169,"2-ethyl-9,10-dihydroanthracene-9,10-dione","InChI=1S/C16H12O2/c1-2-10-7-8-13-14(9-10)16(18)12-6-4-3-5-11(12)15(13)17/h3-9H,2H2,1H3",SJEBAWHUJDUKQK-UHFFFAOYSA-N,CCc1ccc2C(=O)c3ccccc3C(=O)c2c1,-5.9842424969,0.0,1,G1,236.26999999999998,3.0244000000000018,69.12700000000002,18.0,2.0,0.0,2.0,1.0,88.0,2.0,0.0,1.0,3.0,34.14,105.26547882970574,2.2684291257338125,668.5472200566021
A-2172,(4-methyl-4-phenylpent-1-en-2-yl)benzene,"InChI=1S/C18H20/c1-15(16-10-6-4-7-11-16)14-18(2,3)17-12-8-5-9-13-17/h4-13H,1,14H2,2-3H3",ZOKCNEIWFQCSCM-UHFFFAOYSA-N,CC(C)(CC(=C)c1ccccc1)c2ccccc2,-6.0118424703999995,0.0,1,G1,236.35800000000003,5.067700000000004,79.56100000000005,18.0,0.0,0.0,0.0,4.0,92.0,2.0,0.0,0.0,2.0,0.0,109.9885469797564,2.1651245395776497,506.2492784614167
A-2173,"{2-butyl-4-chloro-1-[(4-{2-[2-(triphenylmethyl)-2H-1,2,3,4-tetrazol-5-yl]phenyl}phenyl)methyl]-1H-imidazol-5-yl}methanol","InChI=1S/C41H37ClN6O/c1-2-3-23-38-43-39(42)37(29-49)47(38)28-30-24-26-31(27-25-30)35-21-13-14-22-36(35)40-44-46-48(45-40)41(32-15-7-4-8-16-32,33-17-9-5-10-18-33)34-19-11-6-12-20-34/h4-22,24-27,49H,2-3,23,28-29H2,1H3",QQPGGBNMTNDKEY-UHFFFAOYSA-N,CCCCc1nc(Cl)c(CO)n1Cc2ccc(cc2)c3ccccc3c4nnn(n4)C(c5ccccc5)(c6ccccc6)c7ccccc7,-6.4612511717,0.0,1,G1,665.2410000000002,8.580400000000006,194.16879999999944,49.0,7.0,1.0,8.0,12.0,244.0,7.0,0.0,0.0,7.0,81.65,291.04827957995445,1.2761229406196275,2030.0047999643484
A-2174,disodium oxotitaniumbis(olate),InChI=1S/2Na.3O.Ti/q2*+1;3*-2;+4,LJUBBLNHYXJKSN-UHFFFAOYSA-N,[O--].[O--].[O--].[Na+].[Na+].[Ti+4],-5.805457995399999,0.0,1,G1,141.844,-6.3509,2.0595,6.0,0.0,0.0,6.0,0.0,24.0,0.0,0.0,0.0,0.0,85.5,95.64367090509275,-0.0,8.754887502163466
A-2175,(2R)-2-ethylhexyl (2E)-3-(4-methoxyphenyl)prop-2-enoate (2S)-2-ethylhexyl (2E)-3-(4-methoxyphenyl)prop-2-enoate,"InChI=1S/2C18H26O3/c2*1-4-6-7-15(5-2)14-21-18(19)13-10-16-8-11-17(20-3)12-9-16/h2*8-13,15H,4-7,14H2,1-3H3/b2*13-10+/t2*15-/m10/s1",AKRXZXNNMQZCSA-IVGCKTBMSA-N,CCCC[C@H](CC)COC(=O)/C=C/c1ccc(OC)cc1.CCCC[C@@H](CC)COC(=O)/C=C/c2ccc(OC)cc2,-6.4216084134,0.3648194120499997,2,G3,580.8060000000004,8.936000000000005,172.5859999999995,42.0,6.0,0.0,6.0,18.0,232.0,2.0,0.0,0.0,2.0,71.06,253.65095827835538,4.199999808428581e-07,954.0631804451049
A-2176,"1,4-dimethyl 2-[(E)-2-{2-oxo-1-[(2-oxo-2,3-dihydro-1H-1,3-benzodiazol-5-yl)carbamoyl]propyl}diazen-1-yl]benzene-1,4-dicarboxylate","InChI=1S/C21H19N5O7/c1-10(27)17(18(28)22-12-5-7-14-16(9-12)24-21(31)23-14)26-25-15-8-11(19(29)32-2)4-6-13(15)20(30)33-3/h4-9,17H,1-3H3,(H,22,28)(H2,23,24,31)",KEZJTZQNDCLRDB-UHFFFAOYSA-N,COC(=O)c1ccc(C(=O)OC)c(c1)N=NC(C(C)=O)C(=O)Nc2ccc3NC(=O)Nc3c2,-6.3140693713,0.0,1,G1,453.4110000000002,2.1093999999999995,115.65510000000002,33.0,9.0,3.0,12.0,7.0,170.0,3.0,0.0,0.0,3.0,172.14,185.54984816175954,1.8983317460140268,1338.267208249254
A-2177,2-decyloxirane,"InChI=1S/C12H24O/c1-2-3-4-5-6-7-8-9-10-12-11-13-12/h12H,2-11H2,1H3",MPGABYXKKCLIRW-UHFFFAOYSA-N,CCCCCCCCCCC1CO1,-5.923156849500001,0.0,1,G1,184.32299999999998,3.916000000000003,56.967000000000056,13.0,1.0,0.0,1.0,9.0,78.0,0.0,1.0,1.0,1.0,12.53,82.86132836216991,1.6344124392929746,107.69210414479322
A-2178,2-dodecyloxirane,"InChI=1S/C14H28O/c1-2-3-4-5-6-7-8-9-10-11-12-14-13-15-14/h14H,2-13H2,1H3",IOHJQSFEAYDZGF-UHFFFAOYSA-N,CCCCCCCCCCCCC1CO1,-5.9846848009,0.32172633824999997,2,G3,212.37699999999995,4.696200000000004,66.20100000000006,15.0,1.0,0.0,1.0,11.0,90.0,0.0,1.0,1.0,1.0,12.53,95.59121259096314,1.6182570532012817,129.30039002532132
A-2179,"Decahydrospiro[furan-2(3H),5'-[4,7]methano[5h]indene]","InChI=1S/C13H20O/c1-3-10-9-7-12(11(10)4-1)13(8-9)5-2-6-14-13/h9-12H,1-8H2",JDJZAKLOMAHING-UHFFFAOYSA-N,C1COC2(C1)CC3CC2C4CCCC34,-5.941561120199999,0.0,1,G1,192.30199999999996,2.9917000000000016,54.962000000000046,14.0,1.0,0.0,1.0,0.0,78.0,0.0,4.0,4.0,4.0,9.23,86.20877701597881,1.6878333465948456,253.9611776897996
A-2180,ethenyl[(ethenyldimethylsilyl)oxy]dimethylsilane,"InChI=1S/C8H18OSi2/c1-7-10(3,4)9-11(5,6)8-2/h7-8H,1-2H2,3-6H3",BITPLIXHRASDQB-UHFFFAOYSA-N,C[Si](C)(O[Si](C)(C)C=C)C=C,-5.9544825522,0.0,1,G1,186.40299999999996,2.863600000000001,56.44300000000003,11.0,1.0,0.0,3.0,4.0,64.0,0.0,0.0,0.0,0.0,9.23,72.0368165423149,4.233343581482011,143.4749933158665
A-2181,"2-[1-(2-hydroxy-3,5-dimethylphenyl)-2-methylpropyl]-4,6-dimethylphenol","InChI=1S/C20H26O2/c1-11(2)18(16-9-12(3)7-14(5)19(16)21)17-10-13(4)8-15(6)20(17)22/h7-11,18,21-22H,1-6H3",SZAQZZKNQILGPU-UHFFFAOYSA-N,CC(C)C(c1cc(C)cc(C)c1O)c2cc(C)cc(C)c2O,-6.1673406199,0.0,1,G1,298.426,5.119380000000006,91.84260000000005,22.0,2.0,2.0,2.0,3.0,118.0,2.0,0.0,0.0,2.0,40.46,132.99650174512587,2.7251183452454715,641.8388115595045