ID,Name,InChI,InChIKey,SMILES,Solubility,SD,Ocurrences,Group,MolWt,MolLogP,MolMR,HeavyAtomCount,NumHAcceptors,NumHDonors,NumHeteroatoms,NumRotatableBonds,NumValenceElectrons,NumAromaticRings,NumSaturatedRings,NumAliphaticRings,RingCount,TPSA,LabuteASA,BalabanJ,BertzCT
A-579,Desipramine,"InChI=1S/C18H22N2/c1-19-13-6-14-20-17-9-4-2-7-15(17)11-12-16-8-3-5-10-18(16)20/h2-5,7-10,19H,6,11-14H2,1H3",HCYAFALTSJYZDH-UHFFFAOYSA-N,CNCCCN1c2ccccc2CCc3ccccc13,-3.6576170412,0.01380852060000004,2,G3,266.388,3.5328000000000026,85.84170000000005,20.0,2.0,1.0,2.0,4.0,104.0,2.0,0.0,1.0,3.0,15.27,120.98201471222285,1.9961712661354012,529.6358349258871
A-581,"1-(4-chlorophenoxy)-1-(1H-imidazol-1-yl)-3,3-dimethylbutan-2-one","InChI=1S/C15H17ClN2O2/c1-15(2,3)13(19)14(18-9-8-17-10-18)20-12-6-4-11(16)5-7-12/h4-10,14H,1-3H3",OWEGWHBOCFMBLP-UHFFFAOYSA-N,CC(C)(C)C(=O)C(Oc1ccc(Cl)cc1)n2ccnc2,-3.7030926455,0.51145367725,2,G2,292.766,3.729300000000002,77.80600000000004,20.0,4.0,0.0,5.0,4.0,106.0,2.0,0.0,0.0,2.0,44.120000000000005,122.89526345692907,2.281223550397853,570.9210237184805
A-584,"decane-1,2-diol","InChI=1S/C10H22O2/c1-2-3-4-5-6-7-8-10(12)9-11/h10-12H,2-9H2,1H3",YSRSBDQINUMTIF-UHFFFAOYSA-N,CCCCCCCCC(O)CO,-2.4785789552,0.0,1,G1,174.284,2.0902000000000007,51.085600000000035,12.0,2.0,2.0,2.0,8.0,74.0,0.0,0.0,0.0,0.0,40.46,75.61219756179105,2.901852426069751,83.9077646698008
A-586,2-(butan-2-yl)cyclohexan-1-one,"InChI=1S/C10H18O/c1-3-8(2)9-6-4-5-7-10(9)11/h8-9H,3-7H2,1-2H3",RQXTZKGDMNIWJF-UHFFFAOYSA-N,CCC(C)C1CCCCC1=O,-2.427057806,0.0,1,G1,154.253,2.791800000000001,46.42000000000002,11.0,1.0,0.0,1.0,2.0,64.0,0.0,1.0,1.0,1.0,17.07,69.17942100391356,2.4700357043729846,139.8082034586482
A-587,4-formyl-2-methoxyphenyl 2-methylpropanoate,"InChI=1S/C12H14O4/c1-8(2)12(14)16-10-5-4-9(7-13)6-11(10)15-3/h4-8H,1-3H3",BGKAKRUFBSTALK-UHFFFAOYSA-N,COc1cc(C=O)ccc1OC(=O)C(C)C,-2.5886676064,0.0,1,G1,222.23999999999995,2.0690999999999997,58.85450000000003,16.0,4.0,0.0,4.0,4.0,86.0,1.0,0.0,0.0,1.0,52.6,94.1711904649779,2.9548027317406746,396.00527574751527
A-588,toluene,"InChI=1S/C7H8/c1-7-5-3-2-4-6-7/h2-6H,1H3",YXFVVABEGXRONW-UHFFFAOYSA-N,Cc1ccccc1,-2.2062982993,0.02313469885327636,3,G5,92.14099999999999,1.99502,31.17899999999999,7.0,0.0,0.0,0.0,0.0,36.0,1.0,0.0,0.0,1.0,0.0,43.79634523389357,3.0214653097240864,129.96566024533826
A-594,strontium 4-[(4-chloro-5-methyl-2-sulphonatophenyl)azo]-3-hydroxy-2-naphthoate (1:1),"InChI=1S/C18H13ClN2O6S.Sr/c1-9-6-14(15(8-13(9)19)28(25,26)27)20-21-16-11-5-3-2-4-10(11)7-12(17(16)22)18(23)24;/h2-8,20H,1H3,(H,23,24)(H,25,26,27);/q;+2/p-2/b21-16+;",ZZUKBDPLHIIUFR-JEBHESKQSA-L,[Sr++].Cc1cc(N\N=C/2C(=O)C(=Cc3ccccc23)C([O-])=O)c(cc1Cl)[S]([O-])(=O)=O,-3.9441003714,1.7921656122000005,2,G2,506.4340000000002,0.7039199999999999,104.4989,29.0,8.0,1.0,11.0,4.0,144.0,2.0,0.0,1.0,3.0,138.79,207.8352124899284,2.999996751336934e-06,1190.8326565222305
A-596,"17-hydroxyandrosta-1,4-dien-3-one","InChI=1S/C19H26O2/c1-18-9-7-13(20)11-12(18)3-4-14-15-5-6-17(21)19(15,2)10-8-16(14)18/h7,9,11,14-17,21H,3-6,8,10H2,1-2H3/t14-,15-,16-,17-,18-,19-/m0/s1",RSIHSRDYCUFFLA-DYKIIFRCSA-N,C[C@]12CC[C@H]3[C@@H](CCC4=CC(=O)C=C[C@]34C)[C@@H]1CC[C@@H]2O,-3.7003596507,0.0,1,G1,286.415,3.655200000000003,82.62280000000004,21.0,2.0,1.0,2.0,0.0,114.0,0.0,3.0,4.0,4.0,37.3,126.86143426072285,1.704682463176863,545.7696078462164
A-597,"3-(4-ethylphenyl)-2,2-dimethylpropanenitrile","InChI=1S/C13H17N/c1-4-11-5-7-12(8-6-11)9-13(2,3)10-14/h5-8H,4,9H2,1-3H3",NWMCCMGWYCKNJR-UHFFFAOYSA-N,CCc1ccc(CC(C)(C)C#N)cc1,-3.3513392636000003,0.0,1,G1,187.286,3.341280000000002,58.91800000000004,14.0,1.0,0.0,1.0,3.0,74.0,1.0,0.0,0.0,1.0,23.79,86.37857760174195,2.7486300162092823,327.2483499978795
A-599,"1,6-dichlorohexane",InChI=1S/C6H12Cl2/c7-5-3-1-2-4-6-8/h1-6H2,OVISMSJCKCDOPU-UHFFFAOYSA-N,ClCCCCCCCl,-3.4346473299,0.0,1,G1,155.068,3.0244000000000018,39.908000000000015,8.0,0.0,0.0,2.0,5.0,50.0,0.0,0.0,0.0,0.0,0.0,61.170494053575936,2.53006045688352,31.509775004326936
A-600,Tricyclodecenyl propionate,"InChI=1S/C13H18O2/c1-2-12(14)15-11-6-5-10-8-3-4-9(7-8)13(10)11/h5-6,8-11,13H,2-4,7H2,1H3",BALAUIYKESNHDW-UHFFFAOYSA-N,CCC(=O)OC1C=CC2C3CCC(C3)C12,-3.5585927938,0.0,1,G1,206.28499999999994,2.540300000000001,57.122000000000035,15.0,2.0,0.0,2.0,2.0,82.0,0.0,2.0,3.0,3.0,26.3,90.68652723736753,1.7245030282357003,307.6578138422799
A-601,ethoxybenzene,"InChI=1S/C8H10O/c1-2-9-8-6-4-3-5-7-8/h3-7H,2H2,1H3",DLRJIFUOBPOJNS-UHFFFAOYSA-N,CCOc1ccccc1,-2.3318416428,0.5739888603000001,2,G2,122.16699999999996,2.0853,37.61100000000001,9.0,1.0,0.0,1.0,2.0,48.0,1.0,0.0,0.0,1.0,9.23,55.274832577797056,2.61489994009295,157.4784207656209
A-602,"(2-methyl-1-oxo-1-prop-2-enoxypropan-2-yl) 2-chloro-5-[3-methyl-2,6-dioxo-4-(trifluoromethyl)pyrimidin-1-yl]benzoate","InChI=1S/C20H18ClF3N2O6/c1-5-8-31-17(29)19(2,3)32-16(28)12-9-11(6-7-13(12)21)26-15(27)10-14(20(22,23)24)25(4)18(26)30/h5-7,9-10H,1,8H2,2-4H3",JEDYYFXHPAIBGR-UHFFFAOYSA-N,CN1C(=O)N(C(=O)C=C1C(F)(F)F)c2ccc(Cl)c(c2)C(=O)OC(C)(C)C(=O)OCC=C,-4.676528089,0.0,1,G1,474.8190000000003,2.873,107.94250000000005,32.0,8.0,0.0,12.0,6.0,172.0,2.0,0.0,0.0,2.0,96.60000000000001,183.98060566727574,2.5084448122570673,1197.2870832766007
A-604,iron(3+) ion tris(4-methylbenzene-1-sulfonate),"InChI=1S/3C7H8O3S.Fe/c3*1-6-2-4-7(5-3-6)11(8,9)10;/h3*2-5H,1H3,(H,8,9,10);/q;;;+3/p-3",FYMCOOOLDFPFPN-UHFFFAOYSA-K,[Fe+3].Cc1ccc(cc1)[S]([O-])(=O)=O.Cc2ccc(cc2)[S]([O-])(=O)=O.Cc3ccc(cc3)[S]([O-])(=O)=O,-0.0080331121,0.0,1,G1,569.4360000000003,2.694860000000001,117.42660000000004,34.0,9.0,0.0,13.0,3.0,185.0,3.0,0.0,0.0,3.0,171.59999999999997,210.133608484216,4.7347825688336495e-07,1190.610941498677
A-606,prop-2-en-1-yl 2-phenoxyacetate,"InChI=1S/C11H12O3/c1-2-8-13-11(12)9-14-10-6-4-3-5-7-10/h2-7H,1,8-9H2",VUFZVGQUAVDKMC-UHFFFAOYSA-N,C=CCOC(=O)COc1ccccc1,-2.5363732086,0.0,1,G1,192.21400000000003,1.7946,53.09300000000003,14.0,3.0,0.0,3.0,5.0,74.0,1.0,0.0,0.0,1.0,35.53,82.95512321835328,2.268439796540574,292.660770563408
A-607,ammonium iodide,InChI=1S/HI.H3N/h1H;1H3,UKFWSNCTAHXBQN-UHFFFAOYSA-N,[NH4+].[I-],1.0867760203,0.0,1,G1,144.94299999999998,-2.6198,5.9848,2.0,0.0,1.0,2.0,0.0,16.0,0.0,0.0,0.0,0.0,36.5,30.648020540484183,0.0,2.0
A-610,hexanedioic acid - piperazine (1:1),"InChI=1S/C6H10O4.C4H10N2/c7-5(8)3-1-2-4-6(9)10;1-2-6-4-3-5-1/h1-4H2,(H,7,8)(H,9,10);5-6H,1-4H2",BVEGEKOBSPXUJS-UHFFFAOYSA-N,OC(=O)CCCCC(O)=O.C1CNCCN1,-0.6232866861,0.03873816410000003,2,G3,232.28,-0.10479999999999862,59.479000000000035,16.0,4.0,4.0,6.0,5.0,94.0,0.0,1.0,1.0,1.0,98.66,95.03496612909467,3.1499998902333376e-07,177.4859352668405
A-614,"4-amino-2,5-dimethoxy-N-methylbenzenesulfonamide","InChI=1S/C9H14N2O4S/c1-11-16(12,13)9-5-7(14-2)6(10)4-8(9)15-3/h4-5,11H,10H2,1-3H3",CISVVDNATRQDNU-UHFFFAOYSA-N,CN[S](=O)(=O)c1cc(OC)c(N)cc1OC,-3.6510805625,0.0,1,G1,246.28799999999995,0.19409999999999977,60.203900000000026,16.0,5.0,2.0,7.0,4.0,90.0,1.0,0.0,0.0,1.0,90.65,94.40384869473637,3.4831918015434837,484.52750703526135
A-616,phosphoric acid; urea,"InChI=1S/CH4N2O.H3O4P/c2-1(3)4;1-5(2,3)4/h(H4,2,3,4);(H3,1,2,3,4)",DZHMRSPXDUUJER-UHFFFAOYSA-N,NC(N)=O.O[P](O)(O)=O,0.5376020021,0.0,1,G1,158.04999999999998,-1.9048000000000005,28.033700000000003,9.0,2.0,5.0,8.0,0.0,56.0,0.0,0.0,0.0,0.0,146.87,50.518697606491095,0.0,114.65502203205361
A-617,urea,"InChI=1S/CH4N2O/c2-1(3)4/h(H4,2,3,4)",XSQUKJJJFZCRTK-UHFFFAOYSA-N,NC(N)=O,0.9578400993999999,0.02939404370000004,2,G3,60.056,-0.9762000000000002,13.7708,4.0,1.0,2.0,3.0,0.0,24.0,0.0,0.0,0.0,0.0,69.11,23.580554521898744,2.8030394876740514,29.019550008653873
A-618,1H-benzimidazol-2-ol,"InChI=1S/C7H6N2O/c10-7-8-5-3-1-2-4-6(5)9-7/h1-4H,(H2,8,9,10)",SILNNFMWIMZVEQ-UHFFFAOYSA-N,O=C1Nc2ccccc2N1,-2.3927519971,0.0,1,G1,134.13799999999998,0.8561999999999999,38.91940000000001,10.0,1.0,2.0,3.0,0.0,50.0,2.0,0.0,0.0,2.0,48.65,56.70339815323675,3.007619546803024,362.89835341124046
A-619,carbon monoxide; iron,InChI=1S/5CO.Fe/c5*1-2;,FYOFOKCECDGJBF-UHFFFAOYSA-N,[Fe].[C-]#[O+].[C-]#[O+].[C-]#[O+].[C-]#[O+].[C-]#[O+],-3.2920233513,0.17827366175000003,2,G3,195.89499999999995,-0.19005,19.647499999999997,11.0,0.0,0.0,6.0,0.0,58.0,0.0,0.0,0.0,0.0,99.5,74.22020094962801,-6.944444441872428e-09,73.43782579026443
A-620,3-methyl-5-(prop-2-enoyloxy)pentyl prop-2-enoate,"InChI=1S/C12H18O4/c1-4-11(13)15-8-6-10(3)7-9-16-12(14)5-2/h4-5,10H,1-2,6-9H2,3H3",IQGIEMYBDGDBMR-UHFFFAOYSA-N,CC(CCOC(=O)C=C)CCOC(=O)C=C,-2.6214335505,0.0,1,G1,226.27199999999993,1.8611,60.71000000000003,16.0,4.0,0.0,4.0,8.0,90.0,0.0,0.0,0.0,0.0,52.6,95.92454288092505,3.473591235414658,231.74437510817341
A-622,3-chloroaniline,"InChI=1S/C6H6ClN/c7-5-2-1-3-6(8)4-5/h1-4H,8H2",PNPCRKVUWYDDST-UHFFFAOYSA-N,Nc1cccc(Cl)c1,-1.3733684129,0.02682372519999998,2,G3,127.574,1.9222,35.86440000000001,8.0,1.0,1.0,2.0,0.0,42.0,1.0,0.0,0.0,1.0,26.02,53.07456004339135,3.077660437970554,168.38833891467198
A-624,decahydronaphthalen-2-yl acetate,"InChI=1S/C12H20O2/c1-9(13)14-12-7-6-10-4-2-3-5-11(10)8-12/h10-12H,2-8H2,1H3",XKCLIPLFEJSOAT-UHFFFAOYSA-N,CC(=O)OC1CCC2CCCCC2C1,-3.5605044151999996,0.0,1,G1,196.28999999999996,2.908400000000001,54.853000000000044,14.0,2.0,0.0,2.0,1.0,80.0,0.0,2.0,2.0,2.0,26.3,86.01701930868444,1.857394993050245,212.36726887877518
A-625,"2-hexadecan-2-yl-4,6-dimethylphenol","InChI=1S/C24H42O/c1-5-6-7-8-9-10-11-12-13-14-15-16-17-21(3)23-19-20(2)18-22(4)24(23)25/h18-19,21,25H,5-17H2,1-4H3",TVWGHFVGFWIHFN-UHFFFAOYSA-N,CCCCCCCCCCCCCCC(C)c1cc(C)cc(C)c1O,-7.335707322699999,0.48598563819999985,2,G3,346.59900000000005,8.203740000000005,111.6908000000001,25.0,1.0,1.0,1.0,14.0,144.0,1.0,0.0,0.0,1.0,20.23,156.79459493083198,2.045784385643052,463.40857385764144
A-626,cyclopentene,"InChI=1S/C5H8/c1-2-4-5-3-1/h1-2H,3-5H2",LPIQUOYDBNQMRZ-UHFFFAOYSA-N,C1CC=CC1,-2.1049144818000003,0.26211689969999985,2,G3,68.11900000000001,1.7265,22.990999999999993,5.0,0.0,0.0,0.0,0.0,28.0,0.0,0.0,1.0,1.0,0.0,32.50358529970249,2.3238508690240813,38.0
A-628,"2-[(6-oxobenzo[c][2,1]benzoxaphosphinin-6-yl)methyl]butanedioic acid","InChI=1S/C17H15O6P/c18-16(19)9-11(17(20)21)10-24(22)15-8-4-2-6-13(15)12-5-1-3-7-14(12)23-24/h1-8,11H,9-10H2,(H,18,19)(H,20,21)",XZAXQWXHBDKYJI-UHFFFAOYSA-N,OC(=O)CC(C[P]1(=O)Oc2ccccc2c3ccccc13)C(O)=O,-2.8135095056,0.0,1,G1,346.2750000000001,2.8249000000000004,87.99210000000005,24.0,4.0,2.0,7.0,5.0,124.0,2.0,0.0,1.0,3.0,100.9,137.70870383622187,2.0632806671407455,859.6642015701933
A-638,methane; sulfuric acid,"InChI=1S/CH4.H2O4S/c;1-5(2,3)4/h1H4;(H2,1,2,3,4)",LRPCLTPZMUIPFK-UHFFFAOYSA-N,C.O[S](O)(=O)=O,-3.3330935045,0.868691230089373,5,G4,114.12199999999999,-0.016699999999999826,20.9084,6.0,2.0,2.0,5.0,0.0,40.0,0.0,0.0,0.0,0.0,74.6,36.37695581965344,0.0,90.7164928725825
A-639,hexafluoroethane,"InChI=1S/C2F6/c3-1(4,5)2(6,7)8",WMIYKQLTONQJES-UHFFFAOYSA-N,FC(F)(F)C(F)(F)F,-2.4239072122,0.9124963938999999,2,G2,138.01000000000002,2.1109999999999998,12.110000000000001,8.0,0.0,0.0,6.0,0.0,50.0,0.0,0.0,0.0,0.0,0.0,40.09740555978356,4.020391543176799,61.50977500432693
A-640,"(4E)-5,9-dimethyldeca-4,8-dienal","InChI=1S/C12H20O/c1-11(2)7-6-9-12(3)8-4-5-10-13/h7-8,10H,4-6,9H2,1-3H3/b12-8-",MMLYERLRGHVBEK-WQLSENKSSA-N,CC(C)=CCC\C(C)=C/CCC=O,-3.5383035445999997,0.0,1,G1,180.29099999999997,3.6582000000000026,57.72000000000004,13.0,1.0,0.0,1.0,6.0,74.0,0.0,0.0,0.0,0.0,17.07,81.5359303218675,3.6012994505983236,195.17001630580293
A-645,phenyl methacrylate,"InChI=1S/C10H10O2/c1-8(2)10(11)12-9-6-4-3-5-7-9/h3-7H,1H2,2H3",QIWKUEJZZCOPFV-UHFFFAOYSA-N,CC(=C)C(=O)Oc1ccccc1,-2.4948513605000002,0.0,1,G1,162.188,2.1681,46.89100000000003,12.0,2.0,0.0,2.0,2.0,62.0,1.0,0.0,0.0,1.0,26.3,71.47663587444978,2.6503977732748716,287.9667060215555
A-646,cobalt(2+) bis(4-oxopent-2-en-2-olate),"InChI=1S/2C5H8O2.Co/c2*1-4(6)3-5(2)7;/h2*3,6H,1-2H3;/q;;+2/p-2",UTYYEGLZLFAFDI-UHFFFAOYSA-L,[Co++].CC([O-])=CC(C)=O.CC([O-])=CC(C)=O,-1.6975300994,0.016988040399999904,2,G3,257.15099999999995,-0.3235000000000001,48.876000000000026,15.0,4.0,0.0,5.0,2.0,87.0,0.0,0.0,0.0,0.0,80.25999999999999,99.88190033250186,-1.7999999773125004e-07,230.59595362047995
A-647,"2,6,6-trimethylcyclohexa-1,3-diene-1-carbaldehyde","InChI=1S/C10H14O/c1-8-5-4-6-10(2,3)9(8)7-11/h4-5,7H,6H2,1-3H3",SGAWOGXMMPSZPB-UHFFFAOYSA-N,CC1=C(C=O)C(C)(C)CC=C1,-2.4650077569,0.0,1,G1,150.221,2.4879000000000007,46.30200000000003,11.0,1.0,0.0,1.0,1.0,60.0,0.0,0.0,1.0,1.0,17.07,67.80021493954504,3.0952289656389746,231.2573321994735
A-648,"2,6-di-tert-butyl-4-[(dimethylamino)methyl]phenol","InChI=1S/C17H29NO/c1-16(2,3)13-9-12(11-18(7)8)10-14(15(13)19)17(4,5)6/h9-10,19H,11H2,1-8H3",VMZVBRIIHDRYGK-UHFFFAOYSA-N,CN(C)Cc1cc(c(O)c(c1)C(C)(C)C)C(C)(C)C,-2.7113870277,1.210300847216804,4,G4,263.42499999999995,4.0488000000000035,82.89780000000006,19.0,2.0,1.0,2.0,2.0,108.0,1.0,0.0,0.0,1.0,23.47,117.99983380025903,3.4787084336700778,412.30547357609953
A-649,4-cyclohexyl-4-methylpentan-2-one,"InChI=1S/C12H22O/c1-10(13)9-12(2,3)11-7-5-4-6-8-11/h11H,4-9H2,1-3H3",OAFJAALOFJVHMK-UHFFFAOYSA-N,CC(=O)CC(C)(C)C1CCCCC1,-3.5481536429,0.0,1,G1,182.30699999999993,3.5720000000000027,55.654000000000046,13.0,1.0,0.0,1.0,3.0,76.0,0.0,1.0,1.0,1.0,17.07,81.90930523270679,2.501356702851932,175.56349808388825
A-652,5-methyl-2-(propan-2-yl)cyclohexan-1-ol,"InChI=1S/C10H20O/c1-7(2)9-5-4-8(3)6-10(9)11/h7-11H,4-6H2,1-3H3",NOOLISFMXDJSKH-UHFFFAOYSA-N,CC(C)C1CCC(C)CC1O,-2.4880091207,0.08128306587897749,5,G5,156.269,2.439500000000001,47.34980000000002,11.0,1.0,1.0,1.0,1.0,66.0,0.0,1.0,1.0,1.0,20.23,69.8121326560658,2.437159260034696,120.04118472439221
A-653,Cobalt molybdate,InChI=1S/Co.Mo.4O/q+2;;;;2*-1,KYYSIVCCYWZZLR-UHFFFAOYSA-N,[Co++].[O-][Mo]([O-])(=O)=O,-2.6343205413999997,0.0,1,G1,218.869,-2.6205999999999996,1.373,6.0,4.0,0.0,6.0,0.0,39.0,0.0,0.0,0.0,0.0,80.25999999999999,48.09100054232129,0.0,90.7164928725825
A-655,"1-N-phenylbenzene-1,4-diamine","InChI=1S/C12H12N2/c13-10-6-8-12(9-7-10)14-11-4-2-1-3-5-11/h1-9,14H,13H2",ATGUVEKSASEFFO-UHFFFAOYSA-N,Nc1ccc(Nc2ccccc2)cc1,-2.5631304762,0.0,1,G1,184.24200000000002,3.0124000000000013,60.579100000000025,14.0,2.0,2.0,2.0,2.0,70.0,2.0,0.0,0.0,2.0,38.05,83.37825020618176,2.155110851234288,392.42672290326925
A-656,"N,2-dimethyl-N-phenylbutanamide","InChI=1S/C12H17NO/c1-4-10(2)12(14)13(3)11-8-6-5-7-9-11/h5-10H,4H2,1-3H3",LNODIGSABOGNBQ-UHFFFAOYSA-N,CCC(C)C(=O)N(C)c1ccccc1,-1.5805795126,0.0,1,G1,191.27400000000003,2.695500000000001,59.307000000000045,14.0,1.0,0.0,2.0,3.0,76.0,1.0,0.0,0.0,1.0,20.310000000000002,85.54241157612375,2.7565293985710935,294.44985586192786
A-657,dimethoxymethylvinylsilane,"InChI=1S/C5H12O2Si/c1-5-8(4,6-2)7-3/h5H,1H2,2-4H3",ZLNAFSPCNATQPQ-UHFFFAOYSA-N,CO[Si](C)(OC)C=C,0.5776235848,0.0,1,G1,132.23499999999999,1.0764,35.83299999999999,8.0,2.0,0.0,3.0,3.0,48.0,0.0,0.0,0.0,0.0,18.46,51.364151215439094,3.763089869319169,78.49785513558373
A-659,pyridine-3-carboxamide,"InChI=1S/C6H6N2O/c7-6(9)5-2-1-3-8-4-5/h1-4H,(H2,7,9)",DFPAKSUCGFBDDF-UHFFFAOYSA-N,NC(=O)c1cccnc1,0.6121583154,0.0,1,G1,122.12699999999997,0.18050000000000016,32.7549,9.0,2.0,1.0,3.0,1.0,46.0,1.0,0.0,0.0,1.0,55.980000000000004,52.51740601189656,2.981454614041131,207.5576620543373
A-660,bis(4-hydroxy-N-methylanilinium) sulfate,"InChI=1S/2C7H9NO.H2O4S/c2*1-8-6-2-4-7(9)5-3-6;1-5(2,3)4/h2*2-5,8-9H,1H3;(H2,1,2,3,4)",ZVNPWFOVUDMGRP-UHFFFAOYSA-N,CNc1ccc(O)cc1.CNc2ccc(O)cc2.O[S](O)(=O)=O,-0.838079267,0.10649841124999998,2,G3,344.38900000000007,2.2149999999999994,89.48440000000004,23.0,6.0,6.0,9.0,2.0,128.0,2.0,0.0,0.0,2.0,139.12,134.55010937131544,3.317460287044029e-07,603.1717764855623
A-661,"trisodium (4E)-3-oxo-4-[2-(4-sulfonatonaphthalen-1-yl)hydrazin-1-ylidene]-3,4-dihydronaphthalene-2,7-disulfonate","InChI=1S/C20H14N2O10S3.3Na/c23-20-18(35(30,31)32)10-11-9-12(33(24,25)26)5-6-13(11)19(20)22-21-16-7-8-17(34(27,28)29)15-4-2-1-3-14(15)16;;;/h1-10,21H,(H,24,25,26)(H,27,28,29)(H,30,31,32);;;/q;3*+1/p-3/b22-19+;;;",VOBHRQFELWTZFS-DXVNCNPQSA-K,[Na+].[Na+].[Na+].[O-][S](=O)(=O)c1ccc2c(c1)C=C(C(=O)/C2=N/Nc3ccc(c4ccccc34)[S]([O-])(=O)=O)[S]([O-])(=O)=O,-1.0824140873,0.03959062305000005,2,G3,604.4830000000003,-8.055000000000014,119.15729999999999,38.0,12.0,1.0,18.0,5.0,182.0,3.0,0.0,1.0,4.0,213.05999999999997,283.6374458171736,2.406665406896974e-06,1821.9484329702354
A-662,"3,5-dimethylphenol","InChI=1S/C8H10O/c1-6-3-7(2)5-8(9)4-6/h3-5,9H,1-2H3",TUAMRELNJMMDMT-UHFFFAOYSA-N,Cc1cc(C)cc(O)c1,-1.3879839049,0.005275091150000022,2,G3,122.16699999999997,2.0090399999999997,37.5808,9.0,1.0,1.0,1.0,0.0,48.0,1.0,0.0,0.0,1.0,20.23,54.95552110048619,3.165670309917317,165.32984016148868
A-665,"2,2-bis[(prop-2-enoyloxy)methyl]butyl prop-2-enoate","InChI=1S/C15H20O6/c1-5-12(16)19-9-15(8-4,10-20-13(17)6-2)11-21-14(18)7-3/h5-7H,1-3,8-11H2,4H3",DAKWPKUUDNSNPN-UHFFFAOYSA-N,CCC(COC(=O)C=C)(COC(=O)C=C)COC(=O)C=C,-2.772789495,0.0,1,G1,296.31899999999996,1.5704,76.19200000000002,21.0,6.0,0.0,6.0,10.0,116.0,0.0,0.0,0.0,0.0,78.9,123.60483352148125,4.872529374632145,364.06624200276315
A-666,"2,6-dimethylheptan-4-one","InChI=1S/C9H18O/c1-7(2)5-9(10)6-8(3)4/h7-8H,5-6H2,1-4H3",PTTPXKJBFFKCEK-UHFFFAOYSA-N,CC(C)CC(=O)CC(C)C,-2.4540578458,0.35721148150859366,3,G5,142.242,2.6477000000000013,43.917000000000016,10.0,1.0,0.0,1.0,4.0,60.0,0.0,0.0,0.0,0.0,17.07,63.82031004304616,3.4443870603345483,91.29589375350571
A-667,"4-allyl-1,2-dimethoxybenzene","InChI=1S/C11H14O2/c1-4-5-9-6-7-10(12-2)11(8-9)13-3/h4,6-8H,1,5H2,2-3H3",ZYEMGPIYFIJGTP-UHFFFAOYSA-N,COc1ccc(CC=C)cc1OC,-2.5520132395,0.0,1,G1,178.231,2.4323000000000006,53.44700000000003,13.0,2.0,0.0,2.0,4.0,70.0,1.0,0.0,0.0,1.0,18.46,78.7936011183095,2.975326756105488,292.141794956603
A-668,7-amino-4-hydroxynaphthalene-2-sulfonic acid,"InChI=1S/C10H9NO4S/c11-7-1-2-9-6(3-7)4-8(5-10(9)12)16(13,14)15/h1-5,12H,11H2,(H,13,14,15)",KYARBIJYVGJZLB-UHFFFAOYSA-N,Nc1ccc2c(O)cc(cc2c1)[S](O)(=O)=O,-2.6798855726,0.04845500650000001,2,G3,239.252,1.3743,59.83980000000002,16.0,4.0,3.0,6.0,1.0,84.0,2.0,0.0,0.0,2.0,100.62,91.8758281104815,2.851898648979944,663.8185193123855
A-669,aluminium(3+) ion 6-sulfonato-1-[(E)-2-(4-sulfonatophenyl)diazen-1-yl]naphthalen-2-olate,"InChI=1S/C16H12N2O7S2.Al/c19-15-8-1-10-9-13(27(23,24)25)6-7-14(10)16(15)18-17-11-2-4-12(5-3-11)26(20,21)22;/h1-9,19H,(H,20,21,22)(H,23,24,25);/q;+3/p-3",FFVVMXXUKCHQFS-UHFFFAOYSA-K,[Al+3].[O-]c1ccc2cc(ccc2c1N=Nc3ccc(cc3)[S]([O-])(=O)=O)[S]([O-])(=O)=O,-2.9368865529000003,0.0,1,G1,432.37100000000015,1.7562000000000002,95.69240000000002,28.0,9.0,0.0,12.0,4.0,140.0,3.0,0.0,0.0,3.0,162.17999999999998,170.54195846604932,2.8033303353005454e-06,1272.3406604754432
A-673,methyl 2-[3-(acetyloxy)-2-pentylcyclopent-2-en-1-yl]acetate,"InChI=1S/C15H24O4/c1-4-5-6-7-13-12(10-15(17)18-3)8-9-14(13)19-11(2)16/h12H,4-10H2,1-3H3",IVEVYZAZHQVESM-UHFFFAOYSA-N,CCCCCC1=C(CCC1CC(=O)OC)OC(C)=O,-3.7219886724,0.0,1,G1,268.35299999999995,3.357000000000002,72.29100000000004,19.0,4.0,0.0,4.0,7.0,108.0,0.0,0.0,1.0,1.0,52.6,114.70314110276988,2.715815598281801,357.157075007448
A-674,4-ethenylcyclohex-1-ene,"InChI=1S/C8H12/c1-2-8-6-4-3-5-7-8/h2-4,8H,1,5-7H2",BBDKZWKEPDTENS-UHFFFAOYSA-N,C=CC1CCC=CC1,-3.3351930306999997,0.0,1,G1,108.18399999999998,2.5287000000000006,36.678,8.0,0.0,0.0,0.0,1.0,44.0,0.0,0.0,1.0,1.0,0.0,50.90880861070806,2.3714157955008357,100.60593781761293
A-675,"5-hydroxy-2-(3-hydroxy-4-methoxyphenyl)-4-oxo-3,4-dihydro-2H-chromen-7-yl 6-O-(6-deoxy-alpha-L-mannopyranosyl)-beta-D-glucopyranoside","InChI=1S/C28H34O15/c1-10-21(32)23(34)25(36)27(40-10)39-9-19-22(33)24(35)26(37)28(43-19)41-12-6-14(30)20-15(31)8-17(42-18(20)7-12)11-3-4-16(38-2)13(29)5-11/h3-7,10,17,19,21-30,32-37H,8-9H2,1-2H3/t10-,17-,19+,21-,22+,23+,24-,25+,26+,27+,28+/m0/s1",QUQPHWDTPGMPEX-QJBIFVCTSA-N,COc1ccc(cc1O)[C@@H]2CC(=O)c3c(O)cc(O[C@@H]4O[C@H](CO[C@@H]5O[C@@H](C)[C@H](O)[C@@H](O)[C@H]5O)[C@@H](O)[C@H](O)[C@H]4O)cc3O2,-5.0104856455,0.12084848964814673,6,G5,610.5650000000003,-1.1566000000000003,140.6989,43.0,15.0,8.0,15.0,7.0,236.0,2.0,2.0,3.0,5.0,234.28999999999996,244.50674118997216,1.3039965777101095,1319.3038683813043