ID,Name,InChI,InChIKey,SMILES,Solubility,SD,Ocurrences,Group,MolWt,MolLogP,MolMR,HeavyAtomCount,NumHAcceptors,NumHDonors,NumHeteroatoms,NumRotatableBonds,NumValenceElectrons,NumAromaticRings,NumSaturatedRings,NumAliphaticRings,RingCount,TPSA,LabuteASA,BalabanJ,BertzCT
A-2025,"1,4-bis(2-ethylhexyl) (2E)-but-2-enedioate","InChI=1S/C20H36O4/c1-5-9-11-17(7-3)15-23-19(21)13-14-20(22)24-16-18(8-4)12-10-6-2/h13-14,17-18H,5-12,15-16H2,1-4H3/b14-13+",ROPXFXOUUANXRR-BUHFOSPRSA-N,CCCCC(CC)COC(=O)\C=C\C(=O)OCC(CC)CCCC,-5.4565752567,0.96223762835,2,G2,340.5040000000002,5.061800000000005,97.67000000000007,24.0,4.0,0.0,4.0,14.0,140.0,0.0,0.0,0.0,0.0,52.60000000000001,147.53368282828214,4.0394042357103475,328.6503493057081
A-2026,"2,2-dimethylpropane-1,3-diyl dibenzoate","InChI=1S/C19H20O4/c1-19(2,13-22-17(20)15-9-5-3-6-10-15)14-23-18(21)16-11-7-4-8-12-16/h3-12H,13-14H2,1-2H3",DYJIIMFHSZKBDY-UHFFFAOYSA-N,CC(C)(COC(=O)c1ccccc1)COC(=O)c2ccccc2,-5.4227803586,0.009401781900000294,2,G3,312.365,3.726600000000003,87.23000000000005,23.0,4.0,0.0,4.0,6.0,120.0,2.0,0.0,0.0,2.0,52.6,135.59322678543856,1.8236267403360251,590.0845347710139
A-2029,calcium bis(metaphosphate),"InChI=1S/Ca.2H3O3P/c;2*1-4(2)3/h;2*4H,(H2,1,2,3)/q+2;;/p-2",JBCDXVJTWRWCSR-UHFFFAOYSA-L,[Ca++].O[PH]([O-])=O.O[PH]([O-])=O,-5.253149755,0.0,1,G1,202.052,-2.9234000000000004,28.194599999999998,9.0,4.0,2.0,9.0,0.0,52.0,0.0,0.0,0.0,0.0,120.72,82.42893374467437,-7.199999951999999e-08,69.05865002596163
A-2030,(ethoxymethoxy)cyclododecane,"InChI=1S/C15H30O2/c1-2-16-14-17-15-12-10-8-6-4-3-5-7-9-11-13-15/h15H,2-14H2,1H3",VQNUNMBDOKEZHS-UHFFFAOYSA-N,CCOCOC1CCCCCCCCCCC1,-5.335319967699999,0.0,1,G1,242.40299999999988,4.670300000000005,72.15300000000006,17.0,2.0,0.0,2.0,4.0,102.0,0.0,1.0,1.0,1.0,18.46,107.06969993486663,2.170986572017207,147.00080941905125
A-2032,"2,6-dibromo-4-[2-(3,5-dibromo-4-hydroxyphenyl)propan-2-yl]phenol","InChI=1S/C15H12Br4O2/c1-15(2,7-3-9(16)13(20)10(17)4-7)8-5-11(18)14(21)12(19)6-8/h3-6,20-21H,1-2H3",VEORPZCZECFIRK-UHFFFAOYSA-N,CC(C)(c1cc(Br)c(O)c(Br)c1)c2cc(Br)c(O)c(Br)c2,-5.6941064111,0.6358970423412383,7,G4,543.875,6.4737000000000045,99.14160000000001,21.0,2.0,2.0,6.0,2.0,112.0,2.0,0.0,0.0,2.0,40.46,156.64198159570824,2.614907029381243,605.3051847914574
A-2033,bis(3-methylbutyl) phthalate,"InChI=1S/C18H26O4/c1-13(2)9-11-21-17(19)15-7-5-6-8-16(15)18(20)22-12-10-14(3)4/h5-8,13-14H,9-12H2,1-4H3",JANBFCARANRIKJ-UHFFFAOYSA-N,CC(C)CCOC(=O)c1ccccc1C(=O)OCCC(C)C,-5.444898910599999,0.0,1,G1,306.40200000000004,4.092400000000004,85.91700000000006,22.0,4.0,0.0,4.0,8.0,122.0,1.0,0.0,0.0,1.0,52.60000000000001,132.36084315135759,2.6763110482800374,446.61545263662805
A-2035,zinc bis(diethyldithiocarbamate),"InChI=1S/2C5H11NS2.Zn/c2*1-3-6(4-2)5(7)8;/h2*3-4H2,1-2H3,(H,7,8);/q;;+2/p-2",RKQOSDAEEGPRER-UHFFFAOYSA-L,[Zn++].CCN(CC)C([S-])=S.CCN(CC)C([S-])=S,-5.5333331166,0.0,1,G1,361.9420000000001,2.317500000000001,85.76800000000004,17.0,4.0,0.0,7.0,4.0,96.0,0.0,0.0,0.0,0.0,6.48,140.46025041511305,-2.1777777428641983e-07,184.48257857242325
A-2036,tetraphenyl m-phenylene bis(phosphate),"InChI=1S/C30H24O8P2/c31-39(33-25-14-5-1-6-15-25,34-26-16-7-2-8-17-26)37-29-22-13-23-30(24-29)38-40(32,35-27-18-9-3-10-19-27)36-28-20-11-4-12-21-28/h1-24H",OWICEWMBIBPFAH-UHFFFAOYSA-N,O=[P](Oc1ccccc1)(Oc2ccccc2)Oc3cccc(O[P](=O)(Oc4ccccc4)Oc5ccccc5)c3,-5.7380720067999995,1.4478127811807482,4,G4,574.4620000000002,8.9764,151.1909999999997,40.0,8.0,0.0,10.0,12.0,202.0,5.0,0.0,0.0,5.0,89.52000000000001,231.44027266974447,1.406034041768831,1391.5070122980462
A-2037,9H-carbazole,"InChI=1S/C12H9N/c1-3-7-11-9(5-1)10-6-2-4-8-12(10)13-11/h1-8,13H",UJOBWOGCFQCDNV-UHFFFAOYSA-N,[nH]1c2ccccc2c3ccccc13,-5.2104276195,0.12885035630828862,3,G5,167.21099999999998,3.3211000000000013,55.804700000000025,13.0,0.0,1.0,1.0,0.0,62.0,3.0,0.0,0.0,3.0,15.79,76.00389260398168,2.642438259907001,512.8841359099093
A-2039,"1,2-dicyclohexyl benzene-1,2-dicarboxylate","InChI=1S/C20H26O4/c21-19(23-15-9-3-1-4-10-15)17-13-7-8-14-18(17)20(22)24-16-11-5-2-6-12-16/h7-8,13-16H,1-6,9-12H2",VOWAEIGWURALJQ-UHFFFAOYSA-N,O=C(OC1CCCCC1)c2ccccc2C(=O)OC3CCCCC3,-5.5126055421,0.2978027710500002,2,G3,330.4240000000002,4.665600000000004,91.01900000000006,24.0,4.0,0.0,4.0,4.0,130.0,1.0,2.0,2.0,3.0,52.60000000000001,143.07906507309238,1.6657948843748238,517.7565100703199
A-2041,Prokan,"InChI=1S/C23H32O4/c1-14(24)23(27-15(2)25)12-9-20-18-6-5-16-13-17(26)7-10-21(16,3)19(18)8-11-22(20,23)4/h13,18-20H,5-12H2,1-4H3",VTHUYJIXSMGYOQ-UHFFFAOYSA-N,CC(=O)OC1(CCC2C3CCC4=CC(=O)CCC4(C)C3CCC12C)C(C)=O,-5.5668107327,0.0,1,G1,372.50500000000017,4.409200000000004,101.88800000000006,27.0,4.0,0.0,4.0,2.0,148.0,0.0,3.0,4.0,4.0,60.440000000000005,161.65316142789194,1.7018010291608856,736.6603800570747
A-2042,"(9Z)-N,N-bis(2-hydroxyethyl)octadec-9-enamide","InChI=1S/C22H43NO3/c1-2-3-4-5-6-7-8-9-10-11-12-13-14-15-16-17-22(26)23(18-20-24)19-21-25/h9-10,24-25H,2-8,11-21H2,1H3/b10-9+",LPMBTLLQQJBUOO-MDZDMXLPSA-N,CCCCCCCC/C=C/CCCCCCCC(=O)N(CCO)CCO,-5.567720212,0.0,1,G1,369.5900000000001,4.837100000000006,110.20360000000008,26.0,3.0,2.0,4.0,19.0,154.0,0.0,0.0,0.0,0.0,60.77000000000001,161.22325567261325,3.3930235634029,325.3490495594844
A-2043,"1,3-diethyl 2-({4-[3-ethoxy-2-(ethoxycarbonyl)-3-oxoprop-1-en-1-yl]phenyl}methylidene)propanedioate","InChI=1S/C22H26O8/c1-5-27-19(23)17(20(24)28-6-2)13-15-9-11-16(12-10-15)14-18(21(25)29-7-3)22(26)30-8-4/h9-14H,5-8H2,1-4H3",YUOKTNQLLUHUEK-UHFFFAOYSA-N,CCOC(=O)C(=Cc1ccc(cc1)C=C(C(=O)OCC)C(=O)OCC)C(=O)OCC,-5.6216352692,0.0,1,G1,418.4420000000003,2.705800000000001,108.92800000000005,30.0,8.0,0.0,8.0,10.0,162.0,1.0,0.0,0.0,1.0,105.20000000000003,174.99154020367683,3.216129253403321,709.0442171079859
A-2045,2-phenylethyl (2E)-3-phenylprop-2-enoate,"InChI=1S/C17H16O2/c18-17(12-11-15-7-3-1-4-8-15)19-14-13-16-9-5-2-6-10-16/h1-12H,13-14H2/b12-11+",MJQVZIANGRDJBT-VAWYXSNFSA-N,O=C(OCCc1ccccc1)/C=C/c2ccccc2,-5.4019396274,0.14074915555,2,G3,252.31300000000002,3.4857000000000022,76.58100000000005,19.0,2.0,0.0,2.0,5.0,96.0,2.0,0.0,0.0,2.0,26.3,112.89867219491045,1.7467859348215091,529.7032274575292
A-2046,N-(2-hydroxyethyl)octadecanamide,"InChI=1S/C20H41NO2/c1-2-3-4-5-6-7-8-9-10-11-12-13-14-15-16-17-20(23)21-18-19-22/h22H,2-19H2,1H3,(H,21,23)",OTGQIQQTPXJQRG-UHFFFAOYSA-N,CCCCCCCCCCCCCCCCCC(=O)NCCO,-5.5152815814,0.0,1,G1,327.553,5.356400000000005,99.64150000000008,23.0,2.0,2.0,3.0,18.0,138.0,0.0,0.0,0.0,0.0,49.33,144.17876923721298,3.036229911974311,243.7961725803002
A-2047,N-(4-chlorophenyl)-3-hydroxy-2-naphthamide,"InChI=1S/C17H12ClNO2/c18-13-5-7-14(8-6-13)19-17(21)15-9-11-3-1-2-4-12(11)10-16(15)20/h1-10,20H,(H,19,21)",OHAXNCGNVGGWSO-UHFFFAOYSA-N,Oc1cc2ccccc2cc1C(=O)Nc3ccc(Cl)cc3,-5.4738386427,0.0,1,G1,297.741,4.451100000000001,85.018,21.0,2.0,2.0,4.0,2.0,104.0,3.0,0.0,0.0,3.0,49.33,126.34398823442233,1.9342579478836073,812.637985586735
A-2049,"bis(1,2,2,6,6-pentamethylpiperidin-4-yl) 2-butyl-2-[(3,5-di-tert-butyl-4-hydroxyphenyl)methyl]propanedioate","InChI=1S/C42H72N2O5/c1-18-19-20-42(34(46)48-29-24-38(8,9)43(16)39(10,11)25-29,35(47)49-30-26-40(12,13)44(17)41(14,15)27-30)23-28-21-31(36(2,3)4)33(45)32(22-28)37(5,6)7/h21-22,29-30,45H,18-20,23-27H2,1-17H3",FLPKSBDJMLUTEX-UHFFFAOYSA-N,CCCCC(Cc1cc(c(O)c(c1)C(C)(C)C)C(C)(C)C)(C(=O)OC2CC(C)(C)N(C)C(C)(C)C2)C(=O)OC3CC(C)(C)N(C)C(C)(C)C3,-5.8357203688,0.15051499785000022,2,G3,685.047,9.095500000000005,201.23879999999917,49.0,7.0,1.0,7.0,9.0,280.0,1.0,2.0,2.0,3.0,79.31,299.4216926824204,2.1998993907087105,1232.7553186607138
A-2053,2-bromo-N-[4-chloro-2-(2-fluorobenzoyl)phenyl]acetamide,"InChI=1S/C15H10BrClFNO2/c16-8-14(20)19-13-6-5-9(17)7-11(13)15(21)10-3-1-2-4-12(10)18/h1-7H,8H2,(H,19,20)",WUZSFIKFFXBHMB-UHFFFAOYSA-N,Fc1ccccc1C(=O)c2cc(Cl)ccc2NC(=O)CBr,-5.5693457861,0.0075190873999999575,2,G3,370.6050000000001,4.043500000000002,83.7082,21.0,2.0,1.0,6.0,4.0,108.0,2.0,0.0,0.0,2.0,46.17,133.79257928789568,2.4683046593056117,705.8230148514472
A-2055,Cedryl acetate,"InChI=1S/C17H28O2/c1-11-6-7-13-15(3,4)14-10-17(11,13)9-8-16(14,5)19-12(2)18/h11,13-14H,6-10H2,1-5H3/t11-,13+,14?,16?,17?/m1/s1",HQKQRXZEXPXXIG-GXTNNVKYSA-N,C[C@@H]1CC[C@H]2C(C)(C)C3CC12CCC3(C)OC(C)=O,-5.4266410391,0.0,1,G1,264.40899999999993,4.180600000000004,75.61400000000006,19.0,2.0,0.0,2.0,1.0,108.0,0.0,3.0,3.0,3.0,26.3,116.83589872713824,1.9867717135728293,413.4851275254276
A-2057,12-hydroxyoctadecanoic acid,"InChI=1S/C18H36O3/c1-2-3-4-11-14-17(19)15-12-9-7-5-6-8-10-13-16-18(20)21/h17,19H,2-16H2,1H3,(H,20,21)",ULQISTXYYBZJSJ-UHFFFAOYSA-N,CCCCCCC(O)CCCCCCCCCCC(O)=O,-5.4883700889,0.0,1,G1,300.4829999999999,5.303300000000005,88.57160000000007,21.0,2.0,2.0,3.0,16.0,126.0,0.0,0.0,0.0,0.0,57.53,130.6932565770077,3.119176987458335,228.50332838484442
A-2060,"Bisbenzimidazo[2,1-b:1',2'-j]benzo[lmn][3,8]phenanthroline-6,9-dione",InChI=1S/C26H12N4O2/c31-25-15-11-12-16-22-14(24-28-18-6-2-4-8-20(18)30(24)26(16)32)10-9-13(21(15)22)23-27-17-5-1-3-7-19(17)29(23)25/h1-12H,YMEPVPIIHONYLV-UHFFFAOYSA-N,O=C1n2c3ccccc3nc2c4ccc5c6nc7ccccc7n6C(=O)c8ccc1c4c58,-5.633055848200001,1.0624693683,2,G2,412.40800000000013,4.344000000000002,126.38400000000004,32.0,6.0,0.0,6.0,0.0,148.0,8.0,0.0,0.0,8.0,68.74000000000001,177.8174116107139,1.7350878258692146,2033.0333062293016
A-2062,barium 3-hydroxy-4-[(4-methyl-2-sulphonatophenyl)azo]-2-naphthoate,"InChI=1S/C18H14N2O6S.Ba/c1-10-6-7-14(15(8-10)27(24,25)26)19-20-16-12-5-3-2-4-11(12)9-13(17(16)21)18(22)23;/h2-9,19H,1H3,(H,22,23)(H,24,25,26);/q;+2/p-2/b20-16-;",LPMJODPDQRKJEH-LRZQPWDCSA-L,[Ba++].Cc1ccc(N\N=C\2C(=O)C(=Cc3ccccc23)C([O-])=O)c(c1)[S]([O-])(=O)=O,-5.7351471063,0.6795109712999996,2,G2,521.6970000000002,0.0505199999999999,99.48890000000002,28.0,8.0,1.0,10.0,4.0,138.0,2.0,0.0,1.0,3.0,138.79,200.7200910365774,2.8033304522669224e-06,1138.5148745463796
A-2063,4-{2-[4-(cyanooxy)phenyl]propan-2-yl}phenyl cyanate,"InChI=1S/C17H14N2O2/c1-17(2,13-3-7-15(8-4-13)20-11-18)14-5-9-16(10-6-14)21-12-19/h3-10H,1-2H3",AHZMUXQJTGRNHT-UHFFFAOYSA-N,CC(C)(c1ccc(OC#N)cc1)c2ccc(OC#N)cc2,-5.4695583775,0.0,1,G1,278.311,3.732260000000003,77.49400000000004,21.0,4.0,0.0,4.0,4.0,104.0,2.0,0.0,0.0,2.0,66.03999999999999,123.32545771949525,2.2788128734533615,628.0553464876677
A-2065,lauronitrile,"InChI=1S/C12H23N/c1-2-3-4-5-6-7-8-9-10-11-12-13/h2-11H2,1H3",VXCUURYYWGCLIH-UHFFFAOYSA-N,CCCCCCCCCCCC#N,-5.2899699473,0.0,1,G1,181.32299999999998,4.430880000000004,57.45700000000005,13.0,1.0,0.0,1.0,9.0,76.0,0.0,0.0,0.0,0.0,23.79,83.14619396766098,2.8036102232171927,123.57639132285338
A-2073,1-chloro-4-(4-chlorobenzenesulfonyl)benzene,"InChI=1S/C12H8Cl2O2S/c13-9-1-5-11(6-2-9)17(15,16)12-7-3-10(14)4-8-12/h1-8H",GPAPPPVRLPGFEQ-UHFFFAOYSA-N,Clc1ccc(cc1)[S](=O)(=O)c2ccc(Cl)cc2,-5.5236360799,0.0,1,G1,287.167,3.826200000000002,68.35580000000003,17.0,2.0,0.0,5.0,2.0,88.0,2.0,0.0,0.0,2.0,34.14,109.72042816111093,2.4961289671937283,565.0601341830188
A-2077,"1-N,4-N-bis(5-methylhexan-2-yl)benzene-1,4-diamine","InChI=1S/C20H36N2/c1-15(2)7-9-17(5)21-19-11-13-20(14-12-19)22-18(6)10-8-16(3)4/h11-18,21-22H,7-10H2,1-6H3",ZJNLYGOUHDJHMG-UHFFFAOYSA-N,CC(C)CCC(C)Nc1ccc(NC(C)CCC(C)C)cc1,-5.5751336546,0.7068671379500002,2,G2,304.52200000000005,6.159800000000006,100.75540000000008,22.0,2.0,2.0,2.0,10.0,126.0,1.0,0.0,0.0,1.0,24.06,137.64031708826553,2.386947201191402,355.6732005069588
A-2079,2-cyclododecylpropan-1-ol,"InChI=1S/C15H30O/c1-14(13-16)15-11-9-7-5-3-2-4-6-8-10-12-15/h14-16H,2-13H2,1H3",WKHTUDYDJUHYMK-UHFFFAOYSA-N,CC(CO)C1CCCCCCCCCCC1,-5.451794108500001,0.0,1,G1,226.4039999999999,4.535700000000005,70.52680000000007,16.0,1.0,1.0,1.0,2.0,96.0,0.0,1.0,1.0,1.0,20.23,101.63684322804886,2.297380987578415,143.51394111779547
A-2083,methyl undec-10-enoate,"InChI=1S/C12H22O2/c1-3-4-5-6-7-8-9-10-11-12(13)14-2/h3H,1,4-11H2,2H3",KISVAASFGZJBCY-UHFFFAOYSA-N,COC(=O)CCCCCCCCC=C,-5.3975153521,0.0,1,G1,198.30599999999995,3.4662000000000024,59.14900000000004,14.0,2.0,0.0,2.0,9.0,82.0,0.0,0.0,0.0,0.0,26.3,87.33907858355865,2.984750350744548,152.40071895207583
A-2084,"dialuminium tris[2-(2,4,5,7-tetrabromo-6-oxido-3-oxoxanthen-9-yl)-3,4,5,6-tetrachlorobenzoate]","InChI=1S/3C20H4Br4Cl4O5.2Al/c3*21-5-1-3-7(8-9(20(31)32)13(26)15(28)14(27)12(8)25)4-2-6(22)17(30)11(24)19(4)33-18(3)10(23)16(5)29;;/h3*1-2,29H,(H,31,32);;/q;;;2*+3/p-6",SYHCUZIBEFBVNF-UHFFFAOYSA-H,[Al+3].[Al+3].[O-]C(=O)c1c(Cl)c(Cl)c(Cl)c(Cl)c1C2=C3C=C(Br)C(=O)C(=C3Oc4c(Br)c([O-])c(Br)cc24)Br.[O-]C(=O)c5c(Cl)c(Cl)c(Cl)c(Cl)c5C6=C7C=C(Br)C(=O)C(=C7Oc8c(Br)c([O-])c(Br)cc68)Br.[O-]C(=O)c9c(Cl)c(Cl)c(Cl)c(Cl)c9C%10=C%11C=C(Br)C(=O)C(=C%11Oc%12c(Br)c([O-])c(Br)cc%10%12)Br,-6.4900690111,0.0,1,G1,2404.9409999999984,22.234900000000014,428.98350000000045,101.0,15.0,0.0,41.0,6.0,510.0,6.0,0.0,6.0,12.0,280.2,744.9224912135857,1.9058823221769039e-07,5273.580569004271
A-2085,[(oxobismuthanyl)oxy]bismuthanone,InChI=1S/2Bi.3O/q2*+3;3*-2,TYIXMATWDRGMPF-UHFFFAOYSA-N,[O--].[O--].[O--].[Bi+3].[Bi+3],-5.777924821699999,1.021704798550597,3,G4,465.957,-1.118,13.567499999999999,5.0,0.0,0.0,5.0,0.0,28.0,0.0,0.0,0.0,0.0,85.5,68.30725322632853,-0.0,4.854752972273344
A-2086,Estrone,"InChI=1S/C18H22O2/c1-18-9-8-14-13-5-3-12(19)10-11(13)2-4-15(14)16(18)6-7-17(18)20/h3,5,10,14-16,19H,2,4,6-9H2,1H3/t14-,15-,16+,18+/m1/s1",DNXHEGUUPJUMQT-CBZIJGRNSA-N,C[C@]12CC[C@H]3[C@@H](CCc4cc(O)ccc34)[C@@H]1CCC2=O,-5.5511481213,0.7981740606499999,2,G2,270.372,3.817400000000003,77.73080000000004,20.0,2.0,1.0,2.0,0.0,106.0,1.0,2.0,3.0,4.0,37.3,119.74897088390838,1.7284412573952104,576.7809963203815
A-2087,"2,6-di-tert-butyl-4-methylphenol","InChI=1S/C15H24O/c1-10-8-11(14(2,3)4)13(16)12(9-10)15(5,6)7/h8-9,16H,1-7H3",NLZUEZXRPGMBCV-UHFFFAOYSA-N,Cc1cc(c(O)c(c1)C(C)(C)C)C(C)(C)C,-5.4623112879999995,0.159617263549796,5,G5,220.35599999999997,4.295620000000003,70.24380000000005,16.0,1.0,1.0,1.0,0.0,90.0,1.0,0.0,0.0,1.0,20.23,99.51011590126242,3.507848337934589,353.8715828475769
A-2088,"3,3,4,4,5,5,6,6,7,7,8,8,8-tridecafluorooctyl prop-2-enoate 3,3,4,4,5,5,6,6,7,7,8,8,9,9,10,10,10-heptadecafluorodecyl prop-2-enoate 3,3,4,4,5,5,6,6,7,7,8,8,9,9,10,10,11,11,12,12,12-henicosafluorododecyl prop-2-enoate 3,3,4,4,5,5,6,6,7,7,8,8,9,9,10,10,11,11,12,12,13,13,14,14,14-pentacosafluorotetradecyl prop-2-enoate","InChI=1S/C17H7F25O2.C15H7F21O2.C13H7F17O2.C11H7F13O2/c1-2-5(43)44-4-3-6(18,19)7(20,21)8(22,23)9(24,25)10(26,27)11(28,29)12(30,31)13(32,33)14(34,35)15(36,37)16(38,39)17(40,41)42;1-2-5(37)38-4-3-6(16,17)7(18,19)8(20,21)9(22,23)10(24,25)11(26,27)12(28,29)13(30,31)14(32,33)15(34,35)36;1-2-5(31)32-4-3-6(14,15)7(16,17)8(18,19)9(20,21)10(22,23)11(24,25)12(26,27)13(28,29)30;1-2-5(25)26-4-3-6(12,13)7(14,15)8(16,17)9(18,19)10(20,21)11(22,23)24/h2H,1,3-4H2;2H,1,3-4H2;2H,1,3-4H2;2H,1,3-4H2",HXKIEMJEEMWSAX-UHFFFAOYSA-N,FC(F)(F)C(F)(F)C(F)(F)C(F)(F)C(F)(F)C(F)(F)CCOC(=O)C=C.FC(F)(F)C(F)(F)C(F)(F)C(F)(F)C(F)(F)C(F)(F)C(F)(F)C(F)(F)CCOC(=O)C=C.FC(F)(F)C(F)(F)C(F)(F)C(F)(F)C(F)(F)C(F)(F)C(F)(F)C(F)(F)C(F)(F)C(F)(F)CCOC(=O)C=C.FC(F)(F)C(F)(F)C(F)(F)C(F)(F)C(F)(F)C(F)(F)C(F)(F)C(F)(F)C(F)(F)C(F)(F)C(F)(F)C(F)(F)CCOC(=O)C=C,-6.4814770266999995,0.0,1,G1,2272.680000000001,27.00160000000004,285.61600000000055,140.0,8.0,0.0,84.0,44.0,832.0,0.0,0.0,0.0,0.0,105.20000000000002,712.7511085920886,-8.955579742443009e-07,4231.446250719309
A-2089,"2,4,6-tris(butan-2-yl)phenol","InChI=1S/C18H30O/c1-7-12(4)15-10-16(13(5)8-2)18(19)17(11-15)14(6)9-3/h10-14,19H,7-9H2,1-6H3",LAVMWOGIDKQCDK-UHFFFAOYSA-N,CCC(C)c1cc(C(C)CC)c(O)c(c1)C(C)CC,-5.5497933448,0.5851308576999998,2,G2,262.43699999999995,5.932700000000007,84.22480000000006,19.0,1.0,1.0,1.0,6.0,108.0,1.0,0.0,0.0,1.0,20.23,118.60494224445226,3.374419947424018,377.1464645198251
A-2091,N-phenylnaphthalen-2-amine,"InChI=1S/C16H13N/c1-2-8-15(9-3-1)17-16-11-10-13-6-4-5-7-14(13)12-16/h1-12,17H",KEQFTVQCIQJIQW-UHFFFAOYSA-N,N(c1ccccc1)c2ccc3ccccc3c2,-5.4959148461,0.0,1,G1,219.287,4.583400000000003,73.67270000000003,17.0,1.0,1.0,1.0,2.0,82.0,3.0,0.0,0.0,3.0,12.03,100.72002404090425,1.961246717577175,629.1061251510306
A-2093,oxoyttrium,InChI=1S/O.Y,APUGIHICMSAKGR-UHFFFAOYSA-N,O=[Y],-5.1756981481,0.0,1,G1,104.905,-0.1213,0.6865,2.0,1.0,0.0,2.0,0.0,9.0,0.0,0.0,0.0,0.0,17.07,33.1021923423365,2.0,2.0
A-2094,yttrium oxide,InChI=1S/3O.2Y/q3*-2;2*+3,RUDFQVOCFDJEEF-UHFFFAOYSA-N,[O--].[O--].[O--].[Y+3].[Y+3],-5.5086432075,0.0,1,G1,225.80900000000003,-0.3614,2.0595,5.0,0.0,0.0,5.0,0.0,24.0,0.0,0.0,0.0,0.0,85.5,80.578062803838,-0.0,4.854752972273344
A-2095,"2,6,10-trimethylundec-9-enal","InChI=1S/C14H26O/c1-12(2)7-5-8-13(3)9-6-10-14(4)11-15/h7,11,13-14H,5-6,8-10H2,1-4H3",UEGBWDUVDAKUGA-UHFFFAOYSA-N,CC(CCCC(C)C=O)CCC=C(C)C,-5.496890424,0.0,1,G1,210.36099999999996,4.3742000000000045,66.90800000000004,15.0,1.0,0.0,1.0,8.0,88.0,0.0,0.0,0.0,0.0,17.07,94.95541758284496,3.446713603601744,189.51538124536236
A-2096,"N-(1,4-dimethylpentyl)-N'-phenylbenzene-1,4-diamine","InChI=1S/C19H26N2/c1-15(2)9-10-16(3)20-18-11-13-19(14-12-18)21-17-7-5-4-6-8-17/h4-8,11-16,20-21H,9-10H2,1-3H3",UHJVLUYSDYOULM-UHFFFAOYSA-N,CC(C)CCC(C)Nc1ccc(Nc2ccccc2)cc1,-5.6248375610000005,0.0,1,G1,282.43100000000004,5.666800000000005,93.32340000000006,21.0,2.0,2.0,2.0,7.0,112.0,2.0,0.0,0.0,2.0,24.06,128.14281649355337,1.8681683313643485,517.0224340821791
A-2097,(5Z)-cyclohexadec-5-en-1-one,"InChI=1S/C16H28O/c17-16-14-12-10-8-6-4-2-1-3-5-7-9-11-13-15-16/h6,8H,1-5,7,9-15H2/b8-6-",ABRIMXGLNHCLIP-VURMDHGXSA-N,O=C1CCCCCCCCCC\C=C/CCC1,-5.560732278400001,0.24405831950000012,2,G3,236.39899999999994,5.196600000000005,74.16800000000005,17.0,1.0,0.0,1.0,0.0,98.0,0.0,0.0,1.0,1.0,17.07,106.67947065810897,2.187739377081556,217.5650683358713
A-2098,"17-hydroxy-3-methoxyestra-2,5(10)-diene-17-carbonitrile","InChI=1S/C20H27NO2/c1-19-9-7-16-15-6-4-14(23-2)11-13(15)3-5-17(16)18(19)8-10-20(19,22)12-21/h4,16-18,22H,3,5-11H2,1-2H3",MEEGGHJZTZFSBQ-UHFFFAOYSA-N,COC1=CCC2=C(CCC3C2CCC4(C)C3CCC4(O)C#N)C1,-5.6832424476,0.0,1,G1,313.44100000000003,4.098080000000003,88.19380000000005,23.0,3.0,1.0,3.0,1.0,124.0,0.0,2.0,4.0,4.0,53.25,138.57097918605132,1.6278831867178503,628.0431565749498
A-2099,"Dodecahydro-3,8,8,11a-tetramethyl-5H-3,5a-epoxynaphth(2,1-c)oxepin","InChI=1S/C18H30O2/c1-15(2)8-5-9-16(3)13(15)7-11-18-12-19-17(4,20-18)10-6-14(16)18/h13-14H,5-12H2,1-4H3",PHNCACYNYORRNS-UHFFFAOYSA-N,CC1(C)CCCC2(C)C1CCC34COC(C)(CCC23)O4,-5.6453848366,0.0,1,G1,278.4359999999999,4.524600000000004,79.36000000000007,20.0,2.0,0.0,2.0,0.0,114.0,0.0,4.0,4.0,4.0,18.46,123.14703281746877,1.72837577139478,431.1341594627748
A-2100,1-methyl-4-(propan-2-yl)cyclohexane,"InChI=1S/C10H20/c1-8(2)10-6-4-9(3)5-7-10/h8-10H,4-7H2,1-3H3",CFJYNSNXFXLKNS-UHFFFAOYSA-N,CC1CCC(CC1)C(C)C,-5.3545731075,0.17261344624999975,2,G3,140.26999999999998,3.468700000000003,45.96000000000002,10.0,0.0,0.0,0.0,1.0,60.0,0.0,1.0,1.0,1.0,0.0,65.01789890386979,2.2599025962240935,86.2114326716684
A-2101,barium(2+) ion bis(5-chloro-2-[(E)-2-(2-hydroxynaphthalen-1-yl)diazen-1-yl]-4-methylbenzene-1-sulfonate),"InChI=1S/2C17H13ClN2O4S.Ba/c2*1-10-8-14(16(9-13(10)18)25(22,23)24)19-20-17-12-5-3-2-4-11(12)6-7-15(17)21;/h2*2-9,19H,1H3,(H,22,23,24);/q;;+2/p-2/b2*20-17-;",JNIGYQOBELCEIZ-MAKDUZDQSA-L,[Ba++].Cc1cc(N\N=C\2C(=O)C=Cc3ccccc23)c(cc1Cl)[S]([O-])(=O)=O.Cc4cc(N\N=C\5C(=O)C=Cc6ccccc56)c(cc4Cl)[S]([O-])(=O)=O,-6.156487599,0.9071261934979717,5,G4,888.954,5.548440000000005,195.3437999999997,51.0,12.0,2.0,17.0,6.0,256.0,4.0,0.0,2.0,6.0,197.32,343.4607002754186,2.243076845362726e-07,2261.317942691076
A-2104,(2R)-heptan-2-yl 2-[(5-chloroquinolin-8-yl)oxy]acetate (2S)-heptan-2-yl 2-[(5-chloroquinolin-8-yl)oxy]acetate,"InChI=1S/C18H22ClNO3/c1-3-4-5-7-13(2)23-17(21)12-22-16-10-9-15(19)14-8-6-11-20-18(14)16/h6,8-11,13H,3-5,7,12H2,1-2H3",COYBRKAVBMYYSF-UHFFFAOYSA-N,CCCCCC(C)OC(=O)COc1ccc(Cl)c2cccnc12,-5.7479695323,0.08598716281207149,4,G5,335.8310000000001,4.779000000000004,91.94400000000006,23.0,4.0,0.0,5.0,8.0,124.0,2.0,0.0,0.0,2.0,48.42,141.30907344768733,1.908833851857749,659.7567984804331