ID,Name,InChI,InChIKey,SMILES,Solubility,SD,Ocurrences,Group,MolWt,MolLogP,MolMR,HeavyAtomCount,NumHAcceptors,NumHDonors,NumHeteroatoms,NumRotatableBonds,NumValenceElectrons,NumAromaticRings,NumSaturatedRings,NumAliphaticRings,RingCount,TPSA,LabuteASA,BalabanJ,BertzCT
A-1773,"ethyl 2-(2,4-dimethyl-1,3-dioxolan-2-yl)acetate","InChI=1S/C9H16O4/c1-4-11-8(10)5-9(3)12-6-7(2)13-9/h7H,4-6H2,1-3H3",GSIXJEIRJVOUFB-UHFFFAOYSA-N,CCOC(=O)CC1(C)OCC(C)O1,-2.1798872233,0.0,1,G1,188.22299999999998,1.0911,46.15400000000003,13.0,4.0,0.0,4.0,3.0,76.0,0.0,1.0,1.0,1.0,44.760000000000005,78.15511457803758,2.3870375489290803,192.05372307956134
A-1775,"1,3-dichlorobenzene",InChI=1S/C6H4Cl2/c7-5-2-1-3-6(8)4-5/h1-4H,ZPQOPVIELGIULI-UHFFFAOYSA-N,Clc1cccc(Cl)c1,-3.0721598006999997,0.033737427455360444,3,G5,147.004,2.993400000000001,36.46200000000001,8.0,0.0,0.0,2.0,0.0,42.0,1.0,0.0,0.0,1.0,0.0,58.037935573260306,3.077660437970554,166.38833891467198
A-1776,2-(2-methylphenyl)ethanol,"InChI=1S/C9H12O/c1-8-4-2-3-5-9(8)6-7-10/h2-5,10H,6-7H2,1H3",RUGISKODRCWQNE-UHFFFAOYSA-N,Cc1ccccc1CCO,-1.042878011,0.0,1,G1,136.19400000000002,1.52982,41.968800000000016,10.0,1.0,1.0,1.0,2.0,54.0,1.0,0.0,0.0,1.0,20.23,61.32046321488279,2.811180917188401,205.6381691811921
A-1779,"4-chlorobenzene-1,3-diol","InChI=1S/C6H5ClO2/c7-5-2-1-4(8)3-6(5)9/h1-3,8-9H",JQVAPEJNIZULEK-UHFFFAOYSA-N,Oc1ccc(Cl)c(O)c1,-1.070567643,0.9361642785820035,3,G4,144.55700000000002,1.7511999999999999,34.781600000000005,9.0,2.0,2.0,3.0,0.0,48.0,1.0,0.0,0.0,1.0,40.46,57.32313685077066,3.1716780304409156,222.29788705001033
A-1780,"6,6-dimethyl-2-methylidenebicyclo[3.1.1]heptan-3-ol","InChI=1S/C10H16O/c1-6-8-4-7(5-9(6)11)10(8,2)3/h7-9,11H,1,4-5H2,2-3H3",LCYXQUJDODZYIJ-UHFFFAOYSA-N,CC1(C)C2CC(O)C(=C)C1C2,-2.09612479,0.0,1,G1,152.237,1.9695,45.14180000000002,11.0,1.0,1.0,1.0,0.0,62.0,0.0,3.0,3.0,3.0,20.23,68.11669847035232,2.2332046723663592,204.91831683475925
A-1781,4-(propan-2-yl)cyclohexan-1-ol,"InChI=1S/C9H18O/c1-7(2)8-3-5-9(10)6-4-8/h7-10H,3-6H2,1-2H3",DKKRDMLKVSKFMJ-UHFFFAOYSA-N,CC(C)C1CCC(O)CC1,-2.0680942751,0.0,1,G1,142.24199999999996,2.1935000000000002,42.80280000000001,10.0,1.0,1.0,1.0,1.0,60.0,0.0,1.0,1.0,1.0,20.23,63.44719054166919,2.2599025962240935,90.90138860756122
A-1782,"1,2-dichloro-4-nitrobenzene",InChI=1S/C6H3Cl2NO2/c7-5-2-1-4(9(10)11)3-6(5)8/h1-3H,NTBYINQTYWZXLH-UHFFFAOYSA-N,[O-][N+](=O)c1ccc(Cl)c(Cl)c1,-3.2005181203,0.0,1,G1,192.00099999999998,2.901600000000001,43.11640000000001,11.0,2.0,0.0,5.0,1.0,58.0,1.0,0.0,0.0,1.0,43.14,72.6909112957601,3.1515496683060507,300.6337992264623
A-1783,"disodium 2,5-dichloro-4-{3-methyl-5-oxo-4-[(E)-2-(4-sulfonatophenyl)diazen-1-yl]-4,5-dihydro-1H-pyrazol-1-yl}benzene-1-sulfonate","InChI=1S/C16H12Cl2N4O7S2.2Na/c1-8-15(20-19-9-2-4-10(5-3-9)30(24,25)26)16(23)22(21-8)13-6-12(18)14(7-11(13)17)31(27,28)29;;/h2-7,15H,1H3,(H,24,25,26)(H,27,28,29);;/q;2*+1/p-2",FTZLWXQKVFFWLY-UHFFFAOYSA-L,[Na+].[Na+].CC1=NN(C(=O)C1N=Nc2ccc(cc2)[S]([O-])(=O)=O)c3cc(Cl)c(cc3Cl)[S]([O-])(=O)=O,-0.6605427703,0.0,1,G1,551.2970000000003,-3.315399999999995,107.72940000000003,33.0,10.0,0.0,17.0,5.0,164.0,2.0,0.0,1.0,3.0,171.79,242.86663046971807,2.7224979542078405e-06,1351.6519487841617
A-1784,ammonium iron(III) citrate,"InChI=1S/C6H8O7.Fe.H3N/c7-3(8)1-6(13,5(11)12)2-4(9)10;;/h13H,1-2H2,(H,7,8)(H,9,10)(H,11,12);;1H3/q;+3;/p-3",FRHBOQMZUOWXQL-UHFFFAOYSA-K,N.[Fe+3].OC(CC([O-])=O)(CC([O-])=O)C([O-])=O,0.6609213970000001,0.0,1,G1,261.97499999999997,-5.093099999999998,34.22690000000001,15.0,8.0,2.0,9.0,5.0,87.0,0.0,0.0,0.0,0.0,175.62,94.95683354489533,-7.199998836750194e-07,237.86496481873445
A-1785,disodium 2-amino-5-[(4-sulphonatophenyl)azo]benzenesulphonate,"InChI=1S/C12H11N3O6S2.2Na/c13-11-6-3-9(7-12(11)23(19,20)21)15-14-8-1-4-10(5-2-8)22(16,17)18;;/h1-7H,13H2,(H,16,17,18)(H,19,20,21);;/q;2*+1/p-2",FPVGTPBMTFTMRT-UHFFFAOYSA-L,[Na+].[Na+].Nc1ccc(cc1[S]([O-])(=O)=O)N=Nc2ccc(cc2)[S]([O-])(=O)=O,-0.5243236254,0.0,1,G1,401.3330000000001,-4.499599999999996,77.39880000000002,25.0,9.0,1.0,13.0,4.0,122.0,2.0,0.0,0.0,2.0,165.14,188.35923713256798,2.87999876945054e-06,976.4101375658846
A-1787,"Glycerol, propoxylated, esters with acrylic acid","InChI=1S/C21H32O9/c1-4-19(22)28-13-7-10-25-16-18(27-12-9-15-30-21(24)6-3)17-26-11-8-14-29-20(23)5-2/h4-6,18H,1-3,7-17H2",DMQYPVOQAARSNF-UHFFFAOYSA-N,C=CC(=O)OCCCOCC(COCCCOC(=O)C=C)OCCCOC(=O)C=C,-2.5527472821,0.0,1,G1,428.4780000000003,1.7627,108.69700000000007,30.0,9.0,0.0,9.0,20.0,170.0,0.0,0.0,0.0,0.0,106.59,177.13512189638158,4.045434528323379,498.5700790346187
A-1789,N-{4-[(2-hydroxyethyl)sulfonyl]phenyl}acetamide,"InChI=1S/C10H13NO4S/c1-8(13)11-9-2-4-10(5-3-9)16(14,15)7-6-12/h2-5,12H,6-7H2,1H3,(H,11,13)",XIICKRYAUAVEQS-UHFFFAOYSA-N,CC(=O)Nc1ccc(cc1)[S](=O)(=O)CCO,-2.3069323017,0.0,1,G1,243.28399999999996,0.41099999999999987,59.88430000000003,16.0,4.0,2.0,6.0,4.0,88.0,1.0,0.0,0.0,1.0,83.47,94.0221879947178,2.9054696664014155,464.0973261036955
A-1790,acetylene,InChI=1S/C2H2/c1-2/h1-2H,HSFWRNGVRCDJHI-UHFFFAOYSA-N,C#C,-1.3364263766,0.8132131883,2,G2,26.037999999999997,0.24939999999999998,9.89,2.0,0.0,0.0,0.0,0.0,10.0,0.0,0.0,0.0,0.0,0.0,14.103418534085428,3.0,4.754887502163469
A-1791,propiophenone,"InChI=1S/C9H10O/c1-2-9(10)8-6-4-3-5-7-8/h3-7H,2H2,1H3",KRIOVPPHQSLHCZ-UHFFFAOYSA-N,CCC(=O)c1ccccc1,-2.0485000681,0.11090003405000004,2,G3,134.17799999999997,2.2793,41.063500000000026,10.0,1.0,0.0,1.0,2.0,52.0,1.0,0.0,0.0,1.0,17.07,60.68775156273055,2.8526279288191434,213.42969243757128
A-1792,4-tert-butylbenzaldehyde,"InChI=1S/C11H14O/c1-11(2,3)10-6-4-9(8-12)5-7-10/h4-8H,1-3H3",OTXINXDGSUFPNU-UHFFFAOYSA-N,CC(C)(C)c1ccc(C=O)cc1,-3.1309552762,0.05121234973233352,3,G5,162.23199999999997,2.7966000000000015,50.529500000000034,12.0,1.0,0.0,1.0,1.0,64.0,1.0,0.0,0.0,1.0,17.07,73.41763579152378,2.99883701071891,264.0507411272592
A-1793,6-aminonaphthalene-2-sulfonic acid,"InChI=1S/C10H9NO3S/c11-9-3-1-8-6-10(15(12,13)14)4-2-7(8)5-9/h1-6H,11H2,(H,12,13,14)",SEMRCUIXRUXGJX-UHFFFAOYSA-N,Nc1ccc2cc(ccc2c1)[S](O)(=O)=O,-3.2696160575,0.0,1,G1,223.253,1.6687,58.17500000000001,15.0,3.0,2.0,5.0,1.0,78.0,2.0,0.0,0.0,2.0,80.39,87.0815943582855,2.7288816645246325,619.6001475530923
A-1794,"1-(2,6,6-trimethylcyclohex-2-en-1-yl)pentan-3-one; prop-2-yn-1-ol","InChI=1S/C14H24O.C3H4O/c1-5-12(15)8-9-13-11(2)7-6-10-14(13,3)4;1-2-3-4/h7,13H,5-6,8-10H2,1-4H3;1,4H,3H2",BKHCAESJENSNLE-UHFFFAOYSA-N,CCC(=O)CCC1C(=CCCC1(C)C)C.OCC#C,-4.3219056885,0.0,1,G1,264.40899999999993,3.7401000000000026,80.71280000000004,19.0,2.0,1.0,2.0,4.0,108.0,0.0,0.0,1.0,1.0,37.3,117.84370307009007,7.109999246749671e-07,344.763790635993
A-1795,2-ethylhexyl nitrate,"InChI=1S/C8H17NO3/c1-3-5-6-8(4-2)7-12-9(10)11/h8H,3-7H2,1-2H3",NKRVGWFEFKCZAP-UHFFFAOYSA-N,CCCCC(CC)CO[N+]([O-])=O,-4.1466934911,0.0,1,G1,175.22799999999998,2.4111000000000002,46.25240000000003,12.0,3.0,0.0,4.0,7.0,72.0,0.0,0.0,0.0,0.0,52.37,73.01440528009046,3.4534663383425372,127.47138037474598
A-1796,"3-ethoxy-1,1,5-trimethylcyclohexane","InChI=1S/C11H22O/c1-5-12-10-6-9(2)7-11(3,4)8-10/h9-10H,5-8H2,1-4H3",JVBNHJDWWBSWLE-UHFFFAOYSA-N,CCOC1CC(C)CC(C)(C)C1,-4.1342944341,0.0,1,G1,170.296,3.237700000000002,52.210000000000036,12.0,1.0,0.0,1.0,2.0,72.0,0.0,1.0,1.0,1.0,9.23,76.49638624777329,2.4565297356570683,139.93953880615516
A-1797,isooctyl acrylate,"InChI=1S/C11H20O2/c1-4-11(12)13-9-7-5-6-8-10(2)3/h4,10H,1,5-9H2,2-3H3",DXPPIEDUBFUSEZ-UHFFFAOYSA-N,CC(C)CCCCCOC(=O)C=C,-4.1706554664999995,0.0,1,G1,184.279,2.9320000000000013,54.46200000000004,13.0,2.0,0.0,2.0,7.0,76.0,0.0,0.0,0.0,0.0,26.3,80.97413646916202,3.079859080243926,150.16926858274718
A-1798,"2-(cyclohexylsulfanyl)-2,3-dihydro-1H-isoindole-1,3-dione","InChI=1S/C14H15NO2S/c16-13-11-8-4-5-9-12(11)14(17)15(13)18-10-6-2-1-3-7-10/h4-5,8-10H,1-3,6-7H2",UEZWYKZHXASYJN-UHFFFAOYSA-N,O=C1N(SC2CCCCC2)C(=O)c3ccccc13,-4.3237941723,0.0,1,G1,261.346,3.2635000000000023,71.40600000000003,18.0,3.0,0.0,4.0,2.0,94.0,1.0,1.0,2.0,3.0,37.38,110.68064313389604,1.7886750299312109,459.3222881697243
A-1799,"N-cyclohexyl-3-[(4-{[3-(cyclohexylsulfamoyl)-2,4,6-trimethylphenyl]amino}-9,10-dioxo-9,10-dihydroanthracen-1-yl)amino]-2,4,6-trimethylbenzene-1-sulfonamide","InChI=1S/C44H52N4O6S2/c1-25-23-27(3)43(55(51,52)47-31-15-9-7-10-16-31)29(5)39(25)45-35-21-22-36(38-37(35)41(49)33-19-13-14-20-34(33)42(38)50)46-40-26(2)24-28(4)44(30(40)6)56(53,54)48-32-17-11-8-12-18-32/h13-14,19-24,31-32,45-48H,7-12,15-18H2,1-6H3",AYYCRXDSCYPSRP-UHFFFAOYSA-N,Cc1cc(C)c(c(C)c1Nc2ccc(Nc3c(C)cc(C)c(c3C)[S](=O)(=O)NC4CCCCC4)c5C(=O)c6ccccc6C(=O)c25)[S](=O)(=O)NC7CCCCC7,-4.8187034651,0.0,1,G1,797.056,9.021720000000002,222.0093999999994,56.0,8.0,4.0,12.0,10.0,296.0,4.0,2.0,3.0,7.0,150.53999999999996,330.9280792843832,1.322622002555951,2309.8496635541733
A-1800,"(4-tert-butyl-3-hydroxy-2,6-dimethylphenyl)acetonitrile","InChI=1S/C14H19NO/c1-9-8-12(14(3,4)5)13(16)10(2)11(9)6-7-15/h8,16H,6H2,1-5H3",OUKJZHRCKQJXSU-UHFFFAOYSA-N,Cc1cc(c(O)c(C)c1CC#N)C(C)(C)C,-4.2579024627,0.0,1,G1,217.31199999999995,3.372620000000002,65.59780000000003,16.0,2.0,1.0,2.0,1.0,86.0,1.0,0.0,0.0,1.0,44.019999999999996,97.53775346833456,3.4658065508371094,447.2738627109573
A-1801,cadmium(2+) ion sulfanediide,InChI=1S/Cd.S,CJOBVZJTOIVNNF-UHFFFAOYSA-N,S=[Cd],-4.080623481,0.0,1,G1,144.479,0.6457,7.591,2.0,1.0,0.0,2.0,0.0,8.0,0.0,0.0,0.0,0.0,0.0,32.37979012814488,2.0,2.0
A-1802,"diethyl (3,5-di-tert-butyl-4-hydroxybenzyl)phosphonate","InChI=1S/C19H33O4P/c1-9-22-24(21,23-10-2)13-14-11-15(18(3,4)5)17(20)16(12-14)19(6,7)8/h11-12,20H,9-10,13H2,1-8H3",GJDRKHHGPHLVNI-UHFFFAOYSA-N,CCO[P](=O)(Cc1cc(c(O)c(c1)C(C)(C)C)C(C)(C)C)OCC,-4.4728088442,0.0,1,G1,356.44300000000015,5.753300000000006,100.06930000000007,24.0,4.0,1.0,5.0,6.0,138.0,1.0,0.0,0.0,1.0,55.760000000000005,146.6599152342105,3.4613332696716355,563.7684071248065
A-1803,diiron trimolybdenum dodecaoxide,InChI=1S/2Fe.2Mo.9O/q2*+3;;;9*-2,NGJMAOMHPSCKKA-UHFFFAOYSA-N,[O--].[O--].[O--].[O--].[O--].[O--].[O--].[O--].[O--].[Fe+3].[Fe+3].[Mo].[Mo],-4.5716709895,0.0,1,G1,447.561,-1.0791999999999997,6.178499999999999,13.0,0.0,0.0,13.0,0.0,94.0,0.0,0.0,0.0,0.0,256.5,124.66267534363718,-0.0,15.576391322853388
A-1805,"zinc(2+) ion bis(2,2-dimethyloctanoate)","InChI=1S/2C10H20O2.Zn/c2*1-9(2,3)7-10(4,5)6-8(11)12;/h2*6-7H2,1-5H3,(H,11,12);/q;;+2/p-2",JUODUXKPGONLIM-UHFFFAOYSA-L,[Zn++].CC(C)(C)CC(C)(C)CC([O-])=O.CC(C)(C)CC(C)(C)CC([O-])=O,-3.5342880969,0.3966537261500003,2,G3,407.91000000000025,3.1751000000000023,94.95400000000008,25.0,4.0,0.0,5.0,6.0,144.0,0.0,0.0,0.0,0.0,80.25999999999999,167.47382210193877,-3.723076836639056e-07,372.392540428956
A-1806,"3,7-dimethyloct-6-enenitrile","InChI=1S/C10H17N/c1-9(2)5-4-6-10(3)7-8-11/h5,10H,4,6-7H2,1-3H3",MTDAKBBUYMYKAR-UHFFFAOYSA-N,CC(CCC=C(C)C)CC#N,-3.104157036,0.0,1,G1,151.253,3.282580000000002,48.05900000000003,11.0,1.0,0.0,1.0,4.0,62.0,0.0,0.0,0.0,0.0,23.79,69.72670670668349,3.4007515372983277,158.20181564730422
A-1807,2-nitrophenyl acetate,"InChI=1S/C8H7NO4/c1-6(10)13-8-5-3-2-4-7(8)9(11)12/h2-5H,1H3",MRCKRGSNLOHYRA-UHFFFAOYSA-N,CC(=O)Oc1ccccc1[N+]([O-])=O,-2.1855239105,0.0,1,G1,181.14699999999996,1.5200999999999998,44.405400000000014,13.0,4.0,0.0,5.0,2.0,68.0,1.0,0.0,0.0,1.0,69.44,74.08933040034063,3.0435273546341013,347.75219273969725
A-1808,"N-(4-amino-2,5-diethoxyphenyl)benzamide","InChI=1S/C17H20N2O3/c1-3-21-15-11-14(16(22-4-2)10-13(15)18)19-17(20)12-8-6-5-7-9-12/h5-11H,3-4,18H2,1-2H3,(H,19,20)",CNXZLZNEIYFZGU-UHFFFAOYSA-N,CCOc1cc(NC(=O)c2ccccc2)c(OCC)cc1N,-2.4057571965,0.0,1,G1,300.35800000000006,3.318500000000001,87.58760000000004,22.0,4.0,2.0,5.0,6.0,116.0,2.0,0.0,0.0,2.0,73.58,129.59157333722231,2.307772870520781,641.8523518621994
A-1809,"1,3-benzothiazole-2-thiol","InChI=1S/C7H5NS2/c9-7-8-5-3-1-2-4-6(5)10-7/h1-4H,(H,8,9)",YXIWHUQXZSMYRE-UHFFFAOYSA-N,S=C1Nc2ccccc2S1,-3.1515048920999997,0.46173206477834344,4,G5,167.25799999999998,2.9588900000000002,47.00970000000001,10.0,2.0,1.0,3.0,0.0,50.0,2.0,0.0,0.0,2.0,15.79,67.33185914979505,3.007619546803024,362.89835341124046
A-1814,1-phenylpyrazolidin-3-one,"InChI=1S/C9H10N2O/c12-9-6-7-11(10-9)8-4-2-1-3-5-8/h1-5H,6-7H2,(H,10,12)",CMCWWLVWPDLCRM-UHFFFAOYSA-N,O=C1CCN(N1)c2ccccc2,-1.1448233011,0.0,1,G1,162.192,0.9279,46.54770000000003,12.0,2.0,1.0,3.0,1.0,62.0,1.0,1.0,1.0,2.0,32.34,70.96175228324772,2.163151357913761,283.8398264257791
A-1815,1-(chloromethyl)-2-methylbenzene,"InChI=1S/C8H9Cl/c1-7-4-2-3-5-8(7)6-9/h2-5H,6H2,1H3",VQRBXYBBGHOGFT-UHFFFAOYSA-N,Cc1ccccc1CCl,-3.0813269237,0.0,1,G1,140.613,2.7338200000000006,40.73600000000002,9.0,0.0,0.0,1.0,1.0,48.0,1.0,0.0,0.0,1.0,0.0,60.464553575171855,3.0065240073265844,193.51405299160075
A-1816,prop-1-en-2-ylbenzene,"InChI=1S/C9H10/c1-8(2)9-6-4-3-5-7-9/h3-7H,1H2,2H3",XYLMUPLGERFSHI-UHFFFAOYSA-N,CC(=C)c1ccccc1,-3.0080823215,0.33853063550585694,3,G5,118.17899999999996,2.7197000000000005,41.15000000000002,9.0,0.0,0.0,0.0,1.0,46.0,1.0,0.0,0.0,1.0,0.0,55.83662643050253,2.981454614041131,196.53811204568342
A-1817,2-methoxy-4-(prop-2-en-1-yl)phenol,"InChI=1S/C10H12O2/c1-3-4-8-5-6-9(11)10(7-8)12-2/h3,5-7,11H,1,4H2,2H3",RRAFCDWBNXTKKO-UHFFFAOYSA-N,COc1cc(CC=C)ccc1O,-2.1531779235,0.29548896174999995,2,G3,164.204,2.1293,48.55980000000003,12.0,2.0,1.0,2.0,3.0,64.0,1.0,0.0,0.0,1.0,29.46,72.10934752660204,2.9595595472247798,279.16711032401867
A-1819,"1-Octadecanol, phosphate, potassium salt","InChI=1S/C18H38.K.H3O4P/c1-3-5-7-9-11-13-15-17-18-16-14-12-10-8-6-4-2;;1-5(2,3)4/h3-18H2,1-2H3;;(H3,1,2,3,4)",HFQLXRQLKSICDE-UHFFFAOYSA-N,[K].CCCCCCCCCCCCCCCCCC.O[P](O)(O)=O,-3.5298030638999998,0.31819135278482946,5,G5,391.594,5.958400000000009,105.23690000000006,24.0,1.0,3.0,6.0,15.0,143.0,0.0,0.0,0.0,0.0,77.75999999999999,192.80397475252687,-6.392104220788277e-07,235.13865282819253
A-1821,potassium hydroxysilanoylolate,InChI=1S/K.HO3Si/c;1-4(2)3/h;1H/q+1;-1,WMWBFVSTSRDWRL-UHFFFAOYSA-N,[K+].O[Si]([O-])=O,-3.0044671735,0.0,1,G1,116.189,-5.2416,8.6593,5.0,2.0,1.0,5.0,0.0,24.0,0.0,0.0,0.0,0.0,60.36,73.33644973319022,0.0,29.87430298092722
A-1822,sodium hydroxysilanoylolate,InChI=1S/2Na.O3Si.5H2O/c;;1-4(2)3;;;;;/h;;;5*1H2/q2*+1;-2;;;;;,ADPGKKZKGXANON-UHFFFAOYSA-N,O.O.O.O.O.[Na+].[Na+].[O-][Si]([O-])=O,-3.2659206297,0.0,1,G1,212.13799999999998,-12.993099999999997,24.509499999999996,11.0,3.0,0.0,11.0,0.0,64.0,0.0,0.0,0.0,0.0,220.69,108.64445142532341,-2.142857132653061e-09,35.07329781366414
A-1823,"1,3-difluorobenzene",InChI=1S/C6H4F2/c7-5-2-1-3-6(8)4-5/h1-4H,UEMGWPRHOOEKTA-UHFFFAOYSA-N,Fc1cccc(F)c1,-2.0003579549,0.0,1,G1,114.094,1.9648,26.357999999999997,8.0,0.0,0.0,2.0,0.0,42.0,1.0,0.0,0.0,1.0,0.0,45.76247392534943,3.077660437970554,166.38833891467198
A-1825,cadmium(2+) ion carbonate,"InChI=1S/CH2O3.Cd/c2-1(3)4;/h(H2,2,3,4);/q;+2/p-2",GKDXQAKPHKQZSC-UHFFFAOYSA-L,[Cd++].[O-]C([O-])=O,-2.1796827894,0.0,1,G1,172.42,-2.4495000000000005,5.396,5.0,3.0,0.0,4.0,0.0,24.0,0.0,0.0,0.0,0.0,63.19,48.771792205826934,0.0,29.87430298092722
A-1826,(3Z)-hex-3-en-1-yl 2-methylpropanoate,"InChI=1S/C10H18O2/c1-4-5-6-7-8-12-10(11)9(2)3/h5-6,9H,4,7-8H2,1-3H3/b6-5-",OSMAJVWUIUORGC-WAYWQWQTSA-N,CC\C=C/CCOC(=O)C(C)C,-3.1741873711,0.0,1,G1,170.252,2.541900000000001,49.845000000000034,12.0,2.0,0.0,2.0,5.0,70.0,0.0,0.0,0.0,0.0,26.3,74.60919435476539,3.3140735413076987,147.9175691117035
A-1827,"3-({9,10-dioxo-4-[(2,4,6-trimethyl-3-sulfophenyl)amino]-9,10-dihydroanthracen-1-yl}amino)-2,4,6-trimethylbenzene-1-sulfonic acid; hexane-1,6-diamine","InChI=1S/C32H30N2O8S2.C6H16N2/c1-15-13-17(3)31(43(37,38)39)19(5)27(15)33-23-11-12-24(26-25(23)29(35)21-9-7-8-10-22(21)30(26)36)34-28-16(2)14-18(4)32(20(28)6)44(40,41)42;7-5-3-1-2-4-6-8/h7-14,33-34H,1-6H3,(H,37,38,39)(H,40,41,42);1-8H2",PAGCKSAVALMKPU-UHFFFAOYSA-N,Cc1cc(C)c(c(C)c1Nc2ccc(Nc3c(C)cc(C)c(c3C)[S](O)(=O)=O)c4C(=O)c5ccccc5C(=O)c24)[S](O)(=O)=O.NCCCCCCN,-2.8206093768000002,0.0,1,G1,750.9399999999997,6.757320000000006,203.82639999999958,52.0,10.0,6.0,14.0,11.0,278.0,4.0,0.0,1.0,5.0,218.98,305.07169732065177,6.774998137741544e-07,2125.5380419663975
A-1829,"1,1,2,3,3-pentamethyl-2,3,4,5,6,7-hexahydro-1H-inden-4-one","InChI=1S/C14H22O/c1-9-13(2,3)10-7-6-8-11(15)12(10)14(9,4)5/h9H,6-8H2,1-5H3",MIZGSAALSYARKU-UHFFFAOYSA-N,CC1C(C)(C)C2=C(C(=O)CCC2)C1(C)C,-3.2653422506,0.1790682653000002,2,G3,206.32899999999992,3.738100000000003,62.61000000000005,15.0,1.0,0.0,1.0,0.0,84.0,0.0,0.0,2.0,2.0,17.07,92.9437552757865,2.596666247526767,344.35020121146897
A-1832,2-(4-{2-[4-(2-hydroxyethoxy)phenyl]propan-2-yl}phenoxy)ethan-1-ol,"InChI=1S/C19H24O4/c1-19(2,15-3-7-17(8-4-15)22-13-11-20)16-5-9-18(10-6-16)23-14-12-21/h3-10,20-21H,11-14H2,1-2H3",UUAGPGQUHZVJBQ-UHFFFAOYSA-N,CC(C)(c1ccc(OCCO)cc1)c2ccc(OCCO)cc2,-3.4517905533999995,0.39829709494999976,2,G3,316.39700000000005,2.7547000000000015,90.17360000000005,23.0,4.0,2.0,4.0,8.0,124.0,2.0,0.0,0.0,2.0,58.92,136.85865008974307,2.1292981493188137,534.2716070979034
A-1833,bis(propan-2-yl)amine,"InChI=1S/C6H15N/c1-5(2)7-6(3)4/h5-7H,1-4H3",UAOMVDZJSHZZME-UHFFFAOYSA-N,CC(C)NC(C)C,0.0362422138,0.0,1,G1,101.19299999999998,1.3927999999999998,33.407699999999984,7.0,1.0,1.0,1.0,2.0,44.0,0.0,0.0,0.0,0.0,12.03,46.11382378342063,2.9532231745612925,33.44467835888275
A-1835,"7-{[(2S,3R,4S,5S,6R)-4,5-dihydroxy-6-(hydroxymethyl)-3-{[(2S,3R,4R,5R,6S)-3,4,5-trihydroxy-6-methyloxan-2-yl]oxy}oxan-2-yl]oxy}-5-hydroxy-2-(4-hydroxyphenyl)-3,4-dihydro-2H-1-benzopyran-4-one","InChI=1S/C27H32O14/c1-10-20(32)22(34)24(36)26(37-10)41-25-23(35)21(33)18(9-28)40-27(25)38-13-6-14(30)19-15(31)8-16(39-17(19)7-13)11-2-4-12(29)5-3-11/h2-7,10,16,18,20-30,32-36H,8-9H2,1H3/t10-,16-,18+,20-,21+,22+,23-,24+,25+,26-,27+/m0/s1",DFPMSGMNTNDNHN-ZPHOTFPESA-N,C[C@@H]1O[C@@H](O[C@@H]2[C@@H](O)[C@H](O)[C@@H](CO)O[C@H]2Oc3cc(O)c4C(=O)C[C@H](Oc4c3)c5ccc(O)cc5)[C@H](O)[C@H](O)[C@H]1O,-2.7224387152999996,0.1712113404500002,2,G3,580.5390000000004,-1.1652000000000018,134.14690000000002,41.0,14.0,8.0,14.0,6.0,224.0,2.0,2.0,3.0,5.0,225.05999999999997,233.02825384606865,1.410692039082298,1237.2639755717807
A-1836,tin(2+) ion oxalate,"InChI=1S/C2H2O4.Sn/c3-1(4)2(5)6;/h(H,3,4)(H,5,6);/q;+2/p-2",OQBLGYCUQGDOOR-UHFFFAOYSA-L,[Sn++].[O-]C(=O)C([O-])=O,-2.2740087187,0.0,1,G1,206.72899999999998,-3.8946000000000005,15.767999999999999,7.0,4.0,0.0,5.0,0.0,36.0,0.0,0.0,0.0,0.0,80.25999999999999,56.094187698973734,0.0,75.69058447171099
A-1837,magnesium(2+) ion carbonate,"InChI=1S/CH2O3.Mg/c2-1(3)4;/h(H2,2,3,4);/q;+2/p-2",ZLNQQNXFFQJAID-UHFFFAOYSA-L,[Mg++].[O-]C([O-])=O,-2.8845018574,0.26880100104999993,2,G3,84.31299999999999,-2.8278000000000003,11.149999999999999,5.0,3.0,0.0,4.0,0.0,24.0,0.0,0.0,0.0,0.0,63.19,44.7591364403616,0.0,29.87430298092722
A-1839,"1,2-bis(2-methylpropyl) benzene-1,2-dicarboxylate","InChI=1S/C16H22O4/c1-11(2)9-19-15(17)13-7-5-6-8-14(13)16(18)20-10-12(3)4/h5-8,11-12H,9-10H2,1-4H3",MGWAVDBGNNKXQV-UHFFFAOYSA-N,CC(C)COC(=O)c1ccccc1C(=O)OCC(C)C,-4.3838902648,0.22278688815660866,5,G5,278.348,3.3122000000000025,76.68300000000005,20.0,4.0,0.0,4.0,6.0,110.0,1.0,0.0,0.0,1.0,52.60000000000001,119.63095892256435,2.815925753105677,420.29960603265533
A-1840,"2-[({2,2,4-trimethyl-6-[({2-[(2-methylprop-2-enoyl)oxy]ethoxy}carbonyl)amino]hexyl}carbamoyl)oxy]ethyl 2-methylprop-2-enoate 2-[({2,4,4-trimethyl-6-[({2-[(2-methylprop-2-enoyl)oxy]ethoxy}carbonyl)amino]hexyl}carbamoyl)oxy]ethyl 2-methylprop-2-enoate","InChI=1S/C23H38N2O8/c1-16(2)19(26)30-10-12-32-21(28)24-9-8-18(5)14-23(6,7)15-25-22(29)33-13-11-31-20(27)17(3)4/h18H,1,3,8-15H2,2,4-7H3,(H,24,28)(H,25,29)",UEKHZPDUBLCUHN-UHFFFAOYSA-N,CC(CCNC(=O)OCCOC(=O)C(C)=C)CC(C)(C)CNC(=O)OCCOC(=O)C(C)=C,-4.619923834,0.0056506284000001905,2,G3,470.5630000000003,3.119900000000002,122.42640000000009,33.0,8.0,2.0,10.0,15.0,188.0,0.0,0.0,0.0,0.0,129.26,195.5887651656051,3.9621061451815285,702.5749607742148
A-1843,1-(2-ethylbutyl)cyclohexane-1-carboxylic acid,"InChI=1S/C13H24O2/c1-3-11(4-2)10-13(12(14)15)8-6-5-7-9-13/h11H,3-10H2,1-2H3,(H,14,15)",XRKJBJLXKLOLKS-UHFFFAOYSA-N,CCC(CC)CC1(CCCCC1)C(O)=O,-4.281694517,0.0,1,G1,212.33299999999997,3.847800000000002,61.84280000000005,15.0,1.0,1.0,2.0,5.0,88.0,0.0,1.0,1.0,1.0,37.3,93.06848109929942,2.672386231289719,200.58149257691622