ID,Name,InChI,InChIKey,SMILES,Solubility,SD,Ocurrences,Group,MolWt,MolLogP,MolMR,HeavyAtomCount,NumHAcceptors,NumHDonors,NumHeteroatoms,NumRotatableBonds,NumValenceElectrons,NumAromaticRings,NumSaturatedRings,NumAliphaticRings,RingCount,TPSA,LabuteASA,BalabanJ,BertzCT
A-2352,methyl methanesulfonate,"InChI=1S/C2H6O3S/c1-5-6(2,3)4/h1-2H3",MBABOKRGFJTBAE-UHFFFAOYSA-N,CO[S](C)(=O)=O,-0.041921412799999995,0.1505149978,2,G3,110.13399999999999,-0.40759999999999996,21.85279999999999,6.0,3.0,0.0,4.0,1.0,38.0,0.0,0.0,0.0,0.0,43.370000000000005,37.05214062957765,3.850621638983669,110.75488750216347
A-2355,"2-{3-[(8E)-pentadec-8-en-1-yl]phenoxymethyl}oxirane; 2-{3-[(8E,11E)-pentadeca-8,11,14-trien-1-yl]phenoxymethyl}oxirane; 2-{3-[(8E,11E)-pentadeca-8,11-dien-1-yl]phenoxymethyl}oxirane","InChI=1S/C24H38O2.C24H36O2.C24H34O2/c3*1-2-3-4-5-6-7-8-9-10-11-12-13-14-16-22-17-15-18-23(19-22)25-20-24-21-26-24/h7-8,15,17-19,24H,2-6,9-14,16,20-21H2,1H3;4-5,7-8,15,17-19,24H,2-3,6,9-14,16,20-21H2,1H3;2,4-5,7-8,15,17-19,24H,1,3,6,9-14,16,20-21H2/b8-7+;2*5-4+,8-7+",OUKSICCLOBOVAZ-XSBYHUFWSA-N,CCCCCC/C=C/CCCCCCCc1cccc(OCC2CO2)c1.CCC/C=C/C/C=C/CCCCCCCc3cccc(OCC4CO4)c3.C=CC/C=C/C/C=C/CCCCCCCc5cccc(OCC6CO6)c5,-6.0798516889,0.0,1,G1,1069.6499999999994,19.949699999999996,332.6640000000006,78.0,6.0,0.0,6.0,46.0,432.0,3.0,3.0,3.0,6.0,65.28,476.79028773944805,2.523461452674633e-07,2034.6427731758347
A-2356,N-phenylaniline; formaldehyde; propan-2-one,"InChI=1S/C12H11N.C3H6O.CH2O/c1-3-7-11(8-4-1)13-12-9-5-2-6-10-12;1-3(2)4;1-2/h1-10,13H;1-2H3;1H2",AXEXTEASNRDWCD-UHFFFAOYSA-N,CC(C)=O.C=O.N(c1ccccc1)c2ccccc2,-5.969586401,0.0,1,G1,257.333,3.840600000000002,79.64270000000005,19.0,3.0,1.0,3.0,2.0,100.0,2.0,0.0,0.0,2.0,46.17,113.8328344739015,4.665882135610047e-07,413.189853716995
A-2357,"2,2,4,4,6,12,15-heptamethyl-6-[(trimethylsilyl)oxy]-3,5,10,13,16-pentaoxa-2,4,6-trisilaheptadecane","InChI=1S/C19H48O6Si4/c1-18(20-3)17-22-19(2)16-21-14-13-15-29(12,24-27(7,8)9)25-28(10,11)23-26(4,5)6/h18-19H,13-17H2,1-12H3",GNXVOWXPZHCCTP-UHFFFAOYSA-N,COC(C)COC(C)COCCC[Si](C)(O[Si](C)(C)C)O[Si](C)(C)O[Si](C)(C)C,-6.2877399393,0.0,1,G1,484.9310000000002,5.326500000000006,131.17500000000004,29.0,6.0,0.0,10.0,16.0,176.0,0.0,0.0,0.0,0.0,55.38000000000001,184.25340061896773,4.608611415806905,452.96076546897365
A-2359,"ethyl 3,5-dichloro-4-{[(hexadecyloxy)carbonyl]oxy}benzoate","InChI=1S/C26H40Cl2O5/c1-3-5-6-7-8-9-10-11-12-13-14-15-16-17-18-32-26(30)33-24-22(27)19-21(20-23(24)28)25(29)31-4-2/h19-20H,3-18H2,1-2H3",DFMGMJBWBQNZNK-UHFFFAOYSA-N,CCCCCCCCCCCCCCCCOC(=O)Oc1c(Cl)cc(cc1Cl)C(=O)OCC,-7.1338037886,0.0,1,G1,503.5070000000002,9.1668,134.70649999999998,33.0,5.0,0.0,7.0,18.0,188.0,1.0,0.0,0.0,1.0,61.83,209.00045774980072,2.078120330809087,670.2549708593634
A-2361,copper(2+) ion bis((9Z)-octadec-9-enoate),"InChI=1S/2C18H34O2.Cu/c2*1-2-3-4-5-6-7-8-9-10-11-12-13-14-15-16-17-18(19)20;/h2*9-10H,2-8,11-17H2,1H3,(H,19,20);/q;;+2/p-2/b2*10-9-;",SVOAENZIOKPANY-CVBJKYQLSA-L,[Cu++].CCCCCCCC\C=C/CCCCCCCC([O-])=O.CCCCCCCC\C=C/CCCCCCCC([O-])=O,-11.9989378619,0.0,1,G1,626.4660000000002,9.5451,168.9179999999996,41.0,4.0,0.0,5.0,30.0,245.0,0.0,0.0,0.0,0.0,80.25999999999999,265.645982097572,-6.876190074993222e-07,523.9279511148906
A-2362,"(2S,4S)-4-cyclohexylpyrrolidine-2-carboxylic acid hydrochloride","InChI=1S/C11H19NO2.ClH/c13-11(14)10-6-9(7-12-10)8-4-2-1-3-5-8;/h8-10,12H,1-7H2,(H,13,14);1H/t9-,10+;/m1./s1",BHGFUQJUTOVQOS-UXQCFNEQSA-N,Cl.OC(=O)[C@@H]1C[C@H](CN1)C2CCCCC2,0.631268384,0.0,1,G1,233.73899999999995,2.0512,61.35650000000004,15.0,2.0,2.0,4.0,2.0,88.0,0.0,2.0,2.0,2.0,49.33,97.03572115313442,1.124999528625204e-06,216.63346110774012
A-2363,2-azabicyclo[2.2.1]hept-5-en-3-one,"InChI=1S/C6H7NO/c8-6-4-1-2-5(3-4)7-6/h1-2,4-5H,3H2,(H,7,8)",DDUFYKNOXPZZIW-UHFFFAOYSA-N,O=C1NC2CC1C=C2,0.9361608079000001,0.0,1,G1,109.12799999999999,0.06089999999999973,29.17769999999999,8.0,1.0,1.0,2.0,0.0,42.0,0.0,1.0,2.0,2.0,29.1,47.57408054422168,2.3488387634327257,161.9114705065293
A-2367,cyclohexylbenzene,"InChI=1S/C12H16/c1-3-7-11(8-4-1)12-9-5-2-6-10-12/h1,3-4,7-8,12H,2,5-6,9-10H2",IGARGHRYKHJQSM-UHFFFAOYSA-N,C1CCC(CC1)c2ccccc2,-4.3415022783,0.0,1,G1,160.26000000000002,3.734300000000003,52.26800000000004,12.0,0.0,0.0,0.0,1.0,64.0,1.0,1.0,1.0,2.0,0.0,74.61522465234738,2.082510086938828,219.05344312420405
A-2371,"dipotassium disodium 2,4-diamino-5-(2-{2-sulfonato-4-[2-(sulfonatooxy)ethanesulfonyl]phenyl}diazen-1-yl)-3-(2-{4-[2-(sulfonatooxy)ethanesulfonyl]phenyl}diazen-1-yl)benzene-1-sulfonate","InChI=1S/C22H24N6O18S6.2K.2Na/c23-20-17(27-26-16-6-5-15(11-18(16)49(33,34)35)48(31,32)10-8-46-52(42,43)44)12-19(50(36,37)38)21(24)22(20)28-25-13-1-3-14(4-2-13)47(29,30)9-7-45-51(39,40)41;;;;/h1-6,11-12H,7-10,23-24H2,(H,33,34,35)(H,36,37,38)(H,39,40,41)(H,42,43,44);;;;/q;4*+1/p-4",WHNCPPZRBQNNEY-UHFFFAOYSA-J,[Na+].[Na+].[K+].[K+].Nc1c(cc(c(N)c1N=Nc2ccc(cc2)[S](=O)(=O)CCO[S]([O-])(=O)=O)[S]([O-])(=O)=O)N=Nc3ccc(cc3[S]([O-])(=O)=O)[S](=O)(=O)CCO[S]([O-])(=O)=O,-0.2891446213,0.0,1,G1,973.0040000000002,-11.993000000000015,167.83319999999983,56.0,24.0,2.0,34.0,16.0,286.0,3.0,0.0,0.0,3.0,417.02,449.6610647232293,0.0,2635.622676281715
A-2372,"sodium 5-butyl-1H-1,2,3-benzotriazol-1-ide","InChI=1S/C10H12N3.Na/c1-2-3-4-8-5-6-9-10(7-8)12-13-11-9;/h5-7H,2-4H2,1H3;/q-1;+1",GNLXYXCOPZDOPO-UHFFFAOYSA-N,[Na+].CCCCc1ccc2[n-]nnc2c1,0.40402565619999997,0.0,1,G1,197.217,-1.066399999999999,51.470000000000034,14.0,2.0,0.0,4.0,3.0,68.0,2.0,0.0,0.0,2.0,39.88,105.57159925124735,9.79999704600094e-07,396.9213703569693
A-2377,"4,7,7-trimethylbicyclo[3.1.1]hept-3-ene","InChI=1S/C10H16/c1-7-4-5-8-6-9(7)10(8,2)3/h4,8-9H,5-6H2,1-3H3",GRWFGVWFFZKLTI-UHFFFAOYSA-N,CC1=CCC2CC1C2(C)C,-3.7725704235000004,0.6982724321514986,10,G4,136.238,2.9987000000000013,43.75200000000002,10.0,0.0,0.0,0.0,0.0,56.0,0.0,1.0,3.0,3.0,0.0,63.322464718156304,2.296626579720339,186.21499122004107
A-2378,2-(4-{2-[4-(oxiran-2-ylmethoxy)phenyl]propan-2-yl}phenoxymethyl)oxirane,"InChI=1S/C21H24O4/c1-21(2,15-3-7-17(8-4-15)22-11-19-13-24-19)16-5-9-18(10-6-16)23-12-20-14-25-20/h3-10,19-20H,11-14H2,1-2H3",LCFVJGUPQDGYKZ-UHFFFAOYSA-N,CC(C)(c1ccc(OCC2CO2)cc1)c3ccc(OCC4CO4)cc3,-4.7996200318,0.09274109180158667,3,G5,340.4190000000001,3.567700000000002,95.48200000000006,25.0,4.0,0.0,4.0,8.0,132.0,2.0,2.0,2.0,4.0,43.519999999999996,148.21549496609953,1.412414127527279,636.1808377852377
A-2379,"N,N-dimethylhexadecan-1-amine","InChI=1S/C18H39N/c1-4-5-6-7-8-9-10-11-12-13-14-15-16-17-18-19(2)3/h4-18H2,1-3H3",NHLUVTZJQOJKCC-UHFFFAOYSA-N,CCCCCCCCCCCCCCCCN(C)C,-4.6524349135000005,0.925243029218129,5,G4,269.51699999999994,6.029300000000006,88.86600000000008,19.0,1.0,0.0,1.0,15.0,116.0,0.0,0.0,0.0,0.0,3.24,122.70310064277528,2.9140733561090637,153.76927278138976
A-2380,3-methyl-7-propan-2-ylbicyclo[2.2.2]oct-3-ene-6-carbaldehyde,"InChI=1S/C13H20O/c1-8(2)12-6-10-5-11(7-14)13(12)4-9(10)3/h7-8,11-13H,4-6H2,1-3H3",BNAYNPKNDLTBTJ-UHFFFAOYSA-N,CC(C)C1CC2=C(C)CC1C(C2)C=O,-3.8508542835000004,0.0,1,G1,192.302,3.2039000000000017,57.923000000000044,14.0,1.0,0.0,1.0,2.0,78.0,0.0,1.0,3.0,3.0,17.07,86.57881316138989,2.2642118992424747,274.9601502903714
A-2382,"N,N-dimethyldodecan-1-amine","InChI=1S/C14H31N/c1-4-5-6-7-8-9-10-11-12-13-14-15(2)3/h4-14H2,1-3H3",YWFWDNVOPHGWMX-UHFFFAOYSA-N,CCCCCCCCCCCCN(C)C,-4.4261227438,0.40365311410550875,3,G5,213.40899999999996,4.468900000000004,70.39800000000007,15.0,1.0,0.0,1.0,11.0,92.0,0.0,0.0,0.0,0.0,3.24,97.24333218518885,2.8668131304135893,109.90632784293423
A-2384,"tetrasodium 5-({4-chloro-6-[ethyl(phenyl)amino]-1,3,5-triazin-2-yl}amino)-3-[(E)-2-(1,5-disulfonatonaphthalen-2-yl)diazen-1-yl]-4-hydroxynaphthalene-2,7-disulfonate","InChI=1S/C31H24ClN7O13S4.4Na/c1-2-39(17-7-4-3-5-8-17)31-35-29(32)34-30(36-31)33-22-15-18(53(41,42)43)13-16-14-24(55(47,48)49)26(27(40)25(16)22)38-37-21-12-11-19-20(28(21)56(50,51)52)9-6-10-23(19)54(44,45)46;;;;/h3-15,40H,2H2,1H3,(H,41,42,43)(H,44,45,46)(H,47,48,49)(H,50,51,52)(H,33,34,35,36);;;;/q;4*+1/p-4",DSVQPTKJDZFKIP-UHFFFAOYSA-J,[Na+].[Na+].[Na+].[Na+].CCN(c1ccccc1)c2nc(Cl)nc(Nc3cc(cc4cc(c(N=Nc5ccc6c(cccc6[S]([O-])(=O)=O)c5[S]([O-])(=O)=O)c(O)c34)[S]([O-])(=O)=O)[S]([O-])(=O)=O)n2,-0.5025263499,0.026539221700000004,2,G3,954.2180000000004,-7.51360000000001,192.83129999999983,60.0,20.0,2.0,29.0,11.0,292.0,6.0,0.0,0.0,6.0,327.68999999999994,435.3769591811803,3.100830645523257e-06,3103.617499007708
A-2385,1-chloro-4-(3-chlorophenoxy)benzene,InChI=1S/C12H8Cl2O/c13-9-4-6-11(7-5-9)15-12-3-1-2-10(14)8-12/h1-8H,HPRGYUWRGCTBAV-UHFFFAOYSA-N,Clc1ccc(Oc2cccc(Cl)c2)cc1,-5.3873553168,0.3327589637268531,3,G5,239.101,4.785700000000003,62.97800000000003,15.0,1.0,0.0,3.0,2.0,76.0,2.0,0.0,0.0,2.0,9.23,98.20857500883122,2.181769270376125,451.43422798064194
A-2387,"[2,2-bis(2-ethylhexanoyloxymethyl)-3-[2-(2-ethylhexanoyloxymethyl)-3-(7-methyloctanoyloxy)-2-(7-methyloctanoyloxymethyl)propoxy]propyl] 7-methyloctanoate","InChI=1S/C61H112O13/c1-13-19-34-51(16-4)57(65)72-45-60(42-69-54(62)37-28-22-25-31-48(7)8,43-70-55(63)38-29-23-26-32-49(9)10)40-68-41-61(46-73-58(66)52(17-5)35-20-14-2,47-74-59(67)53(18-6)36-21-15-3)44-71-56(64)39-30-24-27-33-50(11)12/h48-53H,13-47H2,1-12H3",ATDCVWYXPQZTCI-UHFFFAOYSA-N,CCCCC(CC)C(=O)OCC(COCC(COC(=O)CCCCCC(C)C)(COC(=O)C(CC)CCCC)COC(=O)C(CC)CCCC)(COC(=O)CCCCCC(C)C)COC(=O)CCCCCC(C)C,-7.3236867960000005,0.0,1,G1,1053.5539999999987,14.703699999999975,295.1259999999996,74.0,13.0,0.0,13.0,49.0,434.0,0.0,0.0,0.0,0.0,167.03,451.3997270984364,7.3729909187968925,1408.6745555966816
A-2388,"2-hydroxypropanoic acid; 5-({bis[(2-aminopropyl)amino]-1,3,5-triazin-2-yl}amino)-3-{2-[4-({4-[(4-{2-[8-({bis[(2-aminopropyl)amino]-1,3,5-triazin-2-yl}amino)-1-hydroxy-3,6-disulfonaphthalen-2-yl]diazen-1-yl}phenyl)amino]-6-{[3-(diethylamino)propyl]amino}-1,3,5-triazin-2-yl}amino)phenyl]diazen-1-yl}-4-hydroxynaphthalene-2,7-disulfonic acid","InChI=1S/C60H77N27O14S4.C3H6O3/c1-7-87(8-2)19-9-18-65-52-76-57(70-36-10-14-38(15-11-36)83-85-48-44(104(96,97)98)22-34-20-40(102(90,91)92)24-42(46(34)50(48)88)72-59-78-53(66-26-30(3)61)74-54(79-59)67-27-31(4)62)82-58(77-52)71-37-12-16-39(17-13-37)84-86-49-45(105(99,100)101)23-35-21-41(103(93,94)95)25-43(47(35)51(49)89)73-60-80-55(68-28-32(5)63)75-56(81-60)69-29-33(6)64;1-2(4)3(5)6/h10-17,20-25,30-33,88-89H,7-9,18-19,26-29,61-64H2,1-6H3,(H,90,91,92)(H,93,94,95)(H,96,97,98)(H,99,100,101)(H3,65,70,71,76,77,82)(H3,66,67,72,74,78,79)(H3,68,69,73,75,80,81);2,4H,1H3,(H,5,6)",PQKUZJNOANDNSP-UHFFFAOYSA-N,CCN(CC)CCCNc1nc(Nc2ccc(cc2)N=Nc3c(O)c4c(Nc5nc(NCC(C)N)nc(NCC(C)N)n5)cc(cc4cc3[S](O)(=O)=O)[S](O)(=O)=O)nc(Nc6ccc(cc6)N=Nc7c(O)c8c(Nc9nc(NCC(C)N)nc(NCC(C)N)n9)cc(cc8cc7[S](O)(=O)=O)[S](O)(=O)=O)n1.CC(O)C(O)=O,-0.7942190429000001,0.0,1,G1,1618.7970000000007,6.383200000000008,413.0995000000008,111.0,39.0,21.0,48.0,36.0,596.0,9.0,0.0,0.0,9.0,696.5100000000002,634.9633998668196,2.4754972168668856e-06,5014.193364429032
A-2390,ethyl (2S)-5-carbamimidamido-2-dodecanamidopentanoate hydrochloride,"InChI=1S/C20H40N4O3.ClH/c1-3-5-6-7-8-9-10-11-12-15-18(25)24-17(19(26)27-4-2)14-13-16-23-20(21)22;/h17H,3-16H2,1-2H3,(H,24,25)(H4,21,22,23);1H/t17-;/m0./s1",CUBZMGWLVMQKNE-LMOVPXPDSA-N,Cl.CCCCCCCCCCCC(=O)N[C@@H](CCCNC(N)=N)C(=O)OCC,-0.23161196280000002,0.0,1,G1,421.02600000000024,3.6402699999999992,116.80650000000006,28.0,4.0,4.0,8.0,17.0,166.0,0.0,0.0,0.0,0.0,117.3,176.38779994700258,0.0,422.25497943941474
A-2392,"(1E)-1-(2,6,6-trimethylcyclohex-1-en-1-yl)pent-1-en-3-one; (1E)-1-(2,6,6-trimethylcyclohex-2-en-1-yl)pent-1-en-3-one; (3E)-3-methyl-4-(2,6,6-trimethylcyclohex-1-en-1-yl)but-3-en-2-one; (3E)-3-methyl-4-(2,6,6-trimethylcyclohex-2-en-1-yl)but-3-en-2-one","InChI=1S/C14H22O/c1-5-12(15)8-9-13-11(2)7-6-10-14(13,3)4/h7-9,13H,5-6,10H2,1-4H3/b9-8+",VPKMGDRERYMTJX-CMDGGOBGSA-N,CCC(=O)/C=C/C1C(=CCCC1(C)C)C,-3.9923409786,0.0,1,G1,206.32899999999992,3.904200000000003,64.70000000000005,15.0,1.0,0.0,1.0,3.0,84.0,0.0,0.0,1.0,1.0,17.07,93.25998339713146,2.810012610250731,294.4605612693076
A-2393,"(3E)-3-methyl-4-(2,6,6-trimethylcyclohex-2-en-1-yl)but-3-en-2-one","InChI=1S/C14H22O/c1-10-7-6-8-14(4,5)13(10)9-11(2)12(3)15/h7,9,13H,6,8H2,1-5H3/b11-9-",JRJBVWJSTHECJK-LUAWRHEFSA-N,CC(=O)C(\C)=C/C1C(=CCCC1(C)C)C,-3.9923409786,0.05904965604999979,2,G3,206.32899999999992,3.904200000000003,64.70000000000005,15.0,1.0,0.0,1.0,2.0,84.0,0.0,0.0,1.0,1.0,17.07,93.25998339713148,3.0004016609086728,318.2304019029792
A-2394,"(1R,2S,5R)-5-methyl-2-(propan-2-yl)cyclohexyl acetate","InChI=1S/C12H22O2/c1-8(2)11-6-5-9(3)7-12(11)14-10(4)13/h8-9,11-12H,5-7H2,1-4H3/t9-,11+,12-/m1/s1",XHXUANMFYXWVNG-ADEWGFFLSA-N,CC(C)[C@@H]1CC[C@@H](C)C[C@H]1OC(C)=O,-3.9751165598,0.0,1,G1,198.30599999999998,3.0103000000000018,56.89700000000005,14.0,2.0,0.0,2.0,2.0,82.0,0.0,1.0,1.0,1.0,26.3,87.02285046221364,2.5834409878142726,198.49841012019365
A-2395,3-oxo-N-[4-(3-oxobutanamido)phenyl]butanamide,"InChI=1S/C14H16N2O4/c1-9(17)7-13(19)15-11-3-5-12(6-4-11)16-14(20)8-10(2)18/h3-6H,7-8H2,1-2H3,(H,15,19)(H,16,20)",OWGNKUKYZPVEFS-UHFFFAOYSA-N,CC(=O)CC(=O)Nc1ccc(NC(=O)CC(C)=O)cc1,-3.1275010898000004,0.10166433880000003,2,G3,276.292,1.5217999999999998,74.29740000000002,20.0,4.0,2.0,6.0,6.0,106.0,1.0,0.0,0.0,1.0,92.34,116.096752802061,2.55723407622722,485.6098145826132
A-2397,[2-(dodecanoyloxy)ethyl]trimethylazanium chloride,"InChI=1S/C17H36NO2.ClH/c1-5-6-7-8-9-10-11-12-13-14-17(19)20-16-15-18(2,3)4;/h5-16H2,1-4H3;1H/q+1;/p-1",BBJUKVPDIPYNBS-UHFFFAOYSA-M,[Cl-].CCCCCCCCCCCC(=O)OCC[N+](C)(C)C,-2.2111003063999997,0.0,1,G1,321.93300000000005,1.1607000000000007,85.70240000000007,21.0,2.0,0.0,4.0,13.0,128.0,0.0,0.0,0.0,0.0,26.3,137.9762905970741,0.0,239.43483206150742
A-2401,benzyl benzoate,"InChI=1S/C14H12O2/c15-14(13-9-5-2-6-10-13)16-11-12-7-3-1-4-8-12/h1-10H,11H2",SESFRYSPDFLNCH-UHFFFAOYSA-N,O=C(OCc1ccccc1)c2ccccc2,-4.1776244939,0.0,1,G1,212.248,3.0436000000000014,62.00350000000004,16.0,2.0,0.0,2.0,3.0,80.0,2.0,0.0,0.0,2.0,26.3,94.49344888390488,1.9460332806831828,448.67626205276036
A-2402,"1,1'-sulfonyldibenzene","InChI=1S/C12H10O2S/c13-15(14,11-7-3-1-4-8-11)12-9-5-2-6-10-12/h1-10H",KZTYYGOKRVBIMI-UHFFFAOYSA-N,O=[S](=O)(c1ccccc1)c2ccccc2,-4.1928799405,0.0,1,G1,218.277,2.519400000000001,58.335800000000035,15.0,2.0,0.0,3.0,2.0,76.0,2.0,0.0,0.0,2.0,34.14,89.11389570734761,2.5505014056299604,484.8495069839023
A-2403,1-(morpholin-4-yl)prop-2-en-1-one,"InChI=1S/C7H11NO2/c1-2-7(9)8-3-5-10-6-4-8/h2H,1,3-6H2",XLPJNCYCZORXHG-UHFFFAOYSA-N,C=CC(=O)N1CCOCC1,0.8502575853000001,0.0,1,G1,141.17,0.031199999999999894,37.596000000000004,10.0,2.0,0.0,3.0,1.0,56.0,0.0,1.0,1.0,1.0,29.540000000000003,60.26837052824971,2.380539912791972,138.54153309698196
A-2404,1-methoxypropan-2-ol,"InChI=1S/C4H10O2/c1-4(5)3-6-2/h4-5H,3H2,1-2H3",ARXJGSRGQADJSQ-UHFFFAOYSA-N,COCC(C)O,1.0451691789,0.0,1,G1,90.122,0.013600000000000112,23.556799999999992,6.0,2.0,1.0,2.0,2.0,38.0,0.0,0.0,0.0,0.0,29.46,37.741856352722266,2.6272148478988635,26.72905595320056
A-2407,disodium 2-(6-oxido-3-oxo-3H-xanthen-9-yl)benzoate,"InChI=1S/C20H12O5.2Na/c21-11-5-7-15-17(9-11)25-18-10-12(22)6-8-16(18)19(15)13-3-1-2-4-14(13)20(23)24;;/h1-10,21H,(H,23,24);;/q;2*+1/p-2",NJDNXYGOVLYJHP-UHFFFAOYSA-L,[Na+].[Na+].[O-]C(=O)c1ccccc1C2=C3C=CC(=O)C=C3Oc4cc([O-])ccc24,-1.5755053643999999,1.3440908213428664,4,G4,376.27500000000015,-3.9900999999999964,88.31850000000001,27.0,5.0,0.0,7.0,2.0,122.0,2.0,0.0,2.0,4.0,93.4,198.11435083180493,1.3066661902779571e-06,1166.5504482979027
A-2409,azanium; molybdenum; oxygen(-2) anion; hydrate,InChI=1S/Mo.H3N.H2O.O/h;1H3;1H2;/q;;;-2/p+1,XCOMAVCHADVANQ-UHFFFAOYSA-O,[NH4+].O.[O--].[Mo],-1.170241174,0.0,1,G1,147.993,-0.5698000000000001,10.2851,4.0,0.0,1.0,4.0,0.0,30.0,0.0,0.0,0.0,0.0,96.5,38.85382307246037,-0.0,6.0
A-2411,2-sulfanylacetic acid,"InChI=1S/C2H4O2S/c3-2(4)1-5/h5H,1H2,(H,3,4)",CWERGRDVMFNCDR-UHFFFAOYSA-N,OC(=O)CS,-1.9643492148,1.5000246073999999,2,G2,92.119,0.0008000000000000229,21.488799999999998,5.0,2.0,2.0,3.0,1.0,30.0,0.0,0.0,0.0,0.0,37.3,35.21501565786766,2.8473789230876716,42.91260938324327
A-2412,"7-hydroxy-3,7-dimethyloctanal; 1H-indole","InChI=1S/C10H20O2.C8H7N/c1-9(6-8-11)5-4-7-10(2,3)12;1-2-4-8-7(3-1)5-6-9-8/h8-9,12H,4-7H2,1-3H3;1-6,9H",NSBPKSMZAAJTFE-UHFFFAOYSA-N,CC(CCCC(C)(C)O)CC=O.[nH]1ccc2ccccc12,-4.9224509398,0.0,1,G1,289.41900000000004,4.320600000000003,88.29250000000006,21.0,2.0,2.0,3.0,6.0,116.0,2.0,0.0,0.0,2.0,53.089999999999996,126.93323622198156,2.1583332723425945e-07,494.9978899014638
A-2413,dioctadecyl (E)-but-2-enedioate,"InChI=1S/C40H76O4/c1-3-5-7-9-11-13-15-17-19-21-23-25-27-29-31-33-37-43-39(41)35-36-40(42)44-38-34-32-30-28-26-24-22-20-18-16-14-12-10-8-6-4-2/h35-36H,3-34,37-38H2,1-2H3/b36-35+",XHSDDKAGJYJAQM-ULDVOPSXSA-N,CCCCCCCCCCCCCCCCCCOC(=O)\C=C\C(=O)OCCCCCCCCCCCCCCCCCC,-7.094152366,0.0,1,G1,621.044,13.151999999999976,190.14999999999932,44.0,4.0,0.0,4.0,36.0,260.0,0.0,0.0,0.0,0.0,52.60000000000001,274.8325251162143,3.324676093321987,562.4974356082457
A-2414,indium(3+) ion trinitrate,InChI=1S/In.3NO3.H2O/c;3*2-1(3)4;/h;;;;1H2/q+3;3*-1;,YZZFBYAKINKKFM-UHFFFAOYSA-N,O.[In+3].[O-][N+]([O-])=O.[O-][N+]([O-])=O.[O-][N](=O)=O,-2.5035796109,0.0,1,G1,318.8450000000001,-1.9227999999999996,40.45200000000001,14.0,9.0,0.0,14.0,0.0,80.0,0.0,0.0,0.0,0.0,230.09999999999997,92.9785733590432,-2.699999991e-08,112.9167754967118
A-2415,sodium methanethiolate,"InChI=1S/CH4S.Na/c1-2;/h2H,1H3;/q;+1/p-1",RMBAVIFYHOYIFM-UHFFFAOYSA-M,[Na+].C[S-],-1.8456684523,0.0,1,G1,70.092,-2.8328999999999995,13.289000000000001,3.0,1.0,0.0,2.0,0.0,14.0,0.0,0.0,0.0,0.0,0.0,48.30771731394322,0.0,4.754887502163468
A-2417,ethyl 2-[di(phenyl)methylideneamino]acetate,"InChI=1S/C17H17NO2/c1-2-20-16(19)13-18-17(14-9-5-3-6-10-14)15-11-7-4-8-12-15/h3-12H,2,13H2,1H3",QUGJYNGNUBHTNS-UHFFFAOYSA-N,CCOC(=O)CN=C(c1ccccc1)c2ccccc2,-3.4270444492000003,0.0,1,G1,267.32800000000003,3.0871000000000013,80.02300000000005,20.0,3.0,0.0,3.0,5.0,102.0,2.0,0.0,0.0,2.0,38.66,118.48359771295483,2.3036355621588926,534.953703700662
A-2418,"3,9-bis(2,6-di-tert-butyl-4-methylphenoxy)-2,4,8,10-tetraoxa-3,9-diphosphaspiro[5.5]undecane","InChI=1S/C35H54O6P2/c1-23-15-25(31(3,4)5)29(26(16-23)32(6,7)8)40-42-36-19-35(20-37-42)21-38-43(39-22-35)41-30-27(33(9,10)11)17-24(2)18-28(30)34(12,13)14/h15-18H,19-22H2,1-14H3",SSADPHQCUURWSW-UHFFFAOYSA-N,Cc1cc(c(OP2OCC3(CO2)COP(OC3)Oc4c(cc(C)cc4C(C)(C)C)C(C)(C)C)c(c1)C(C)(C)C)C(C)(C)C,-7.801238331,0.7074866739500005,2,G2,632.7590000000001,10.485039999999993,178.4949999999994,43.0,6.0,0.0,8.0,4.0,240.0,2.0,2.0,2.0,4.0,55.38000000000001,263.0711673371757,1.4625231015435105,1118.5496137122502
A-2419,aluminium(3+) ion phosphate,"InChI=1S/Al.H3O4P/c;1-5(2,3)4/h;(H3,1,2,3,4)/q+3;/p-3",ILRRQNADMUWWFW-UHFFFAOYSA-K,[Al+3].[O-][P]([O-])([O-])=O,-4.2460828326,0.0,1,G1,121.95199999999998,-3.2054,13.3605,6.0,4.0,0.0,6.0,0.0,32.0,0.0,0.0,0.0,0.0,86.25,45.18013383648277,0.0,53.68367439558379
A-2420,"1,4-diethyl 2-{[4-({4-[(1,4-diethoxy-1,4-dioxobutan-2-yl)amino]-3-methylcyclohexyl}methyl)-2-methylcyclohexyl]amino}butanedioate","InChI=1S/C31H54N2O8/c1-7-38-28(34)18-26(30(36)40-9-3)32-24-13-11-22(15-20(24)5)17-23-12-14-25(21(6)16-23)33-27(31(37)41-10-4)19-29(35)39-8-2/h20-27,32-33H,7-19H2,1-6H3",YHVVJCQIMRGPPE-UHFFFAOYSA-N,CCOC(=O)CC(NC1CCC(CC2CCC(NC(CC(=O)OCC)C(=O)OCC)C(C)C2)CC1C)C(=O)OCC,-5.0665338896,0.0,1,G1,582.7790000000003,3.935100000000004,154.81639999999976,41.0,10.0,2.0,10.0,16.0,236.0,0.0,2.0,2.0,2.0,129.26000000000002,245.87584583808805,1.8718763324286911,770.9354980886898
A-2421,"N-(carboxymethyl)-3-(dodecanoylamino)-N,N-dimethylpropan-1-aminium hydroxide","InChI=1S/C19H38N2O3/c1-4-5-6-7-8-9-10-11-12-14-18(22)20-15-13-16-21(2,3)17-19(23)24/h4-17H2,1-3H3,(H-,20,22,23,24)",MRUAUOIMASANKQ-UHFFFAOYSA-N,CCCCCCCCCCCC(=O)NCCC[N+](C)(C)CC([O-])=O,-3.1367509983999997,0.0,1,G1,342.5240000000001,2.2399000000000004,96.32010000000007,24.0,3.0,1.0,5.0,16.0,142.0,0.0,0.0,0.0,0.0,69.22999999999999,147.9451543796588,3.4274107066171573,343.503601637374