ID,Name,InChI,InChIKey,SMILES,Solubility,SD,Ocurrences,Group,MolWt,MolLogP,MolMR,HeavyAtomCount,NumHAcceptors,NumHDonors,NumHeteroatoms,NumRotatableBonds,NumValenceElectrons,NumAromaticRings,NumSaturatedRings,NumAliphaticRings,RingCount,TPSA,LabuteASA,BalabanJ,BertzCT
A-4029,2-(dimethylamino)ethyl acrylate,"InChI=1S/C7H13NO2/c1-4-7(9)10-6-5-8(2)3/h4H,1,5-6H2,2-3H3",DPBJAVGHACCNRL-UHFFFAOYSA-N,CN(C)CCOC(=O)C=C,0.2243106848,0.30989437915000007,2,G3,143.18599999999998,0.2771999999999999,39.71,10.0,3.0,0.0,3.0,4.0,58.0,0.0,0.0,0.0,0.0,29.54,61.27420168177895,3.1948650246270067,120.77451436272597
A-4030,"4-methyl-1,3-dioxolan-2-one","InChI=1S/C4H6O3/c1-3-2-6-4(5)7-3/h3H,2H2,1H3",RUOJZAUFBMNUDX-UHFFFAOYSA-N,CC1COC(=O)O1,0.371232292,0.06858659655,2,G3,102.08899999999998,0.5417000000000001,21.89499999999999,7.0,3.0,0.0,3.0,0.0,40.0,0.0,1.0,1.0,1.0,35.53,41.21685877654767,2.39706714269016,88.93569696954752
A-4031,(4-methoxyphenyl)methanol,"InChI=1S/C8H10O2/c1-10-8-4-2-7(6-9)3-5-8/h2-5,9H,6H2,1H3",MSHFRERJPWKJFX-UHFFFAOYSA-N,COc1ccc(CO)cc1,-0.7447271456,0.5617915617527607,3,G4,138.166,1.1874999999999998,38.91680000000001,10.0,2.0,1.0,2.0,2.0,54.0,1.0,0.0,0.0,1.0,29.46,60.06906632999306,2.7972512629697874,167.91749419417292
A-4032,aniline; formaldehyde,"InChI=1S/C6H7N.CH2O/c7-6-4-2-1-3-5-6;1-2/h1-5H,7H2;1H2",OUCPJZWNFRYRBI-UHFFFAOYSA-N,Nc1ccccc1.C=O,-2.0040922179,0.27783193561602176,3,G5,123.15499999999999,1.0839,37.975400000000015,9.0,2.0,1.0,2.0,0.0,48.0,1.0,0.0,0.0,1.0,43.09,54.30358918447927,2.914285599204087e-07,150.26213946331586
A-4034,1-ethynylcyclohexanol,"InChI=1S/C8H12O/c1-2-8(9)6-4-3-5-7-8/h1,9H,3-7H2",QYLFHLNFIHBCPR-UHFFFAOYSA-N,OC1(CCCCC1)C#C,-0.7048960629000001,0.0,1,G1,124.18299999999999,1.3148,36.867799999999995,9.0,1.0,1.0,1.0,0.0,50.0,0.0,1.0,1.0,1.0,20.23,56.08147381913186,2.489256685875949,125.99328661116542
A-4036,"1,3-dioxo-1,3-dihydro-2-benzofuran-5-carboxylic acid","InChI=1S/C9H4O5/c10-7(11)4-1-2-5-6(3-4)9(13)14-8(5)12/h1-3H,(H,10,11)",SRPWOOOHEPICQU-UHFFFAOYSA-N,OC(=O)c1ccc2C(=O)OC(=O)c2c1,-0.8961963145999999,0.09274088790000001,2,G3,192.12599999999998,0.6954,43.1473,14.0,4.0,1.0,5.0,1.0,70.0,1.0,0.0,1.0,2.0,80.66999999999999,77.91274359099175,2.6076190147194995,460.2701600541334
A-4039,caesium(1+) ion nitrate,InChI=1S/Cs,TVFDJXOCXUVLDH-UHFFFAOYSA-N,[Cs],0.255764198,0.0,1,G1,132.905,-0.3808,5.754,1.0,0.0,0.0,1.0,0.0,1.0,0.0,0.0,0.0,0.0,0.0,66.67326690489932,0.0,0.0
A-4040,"3-hydroxy-2,2-dimethylpropyl 3-hydroxy-2,2-dimethylpropanoate","InChI=1S/C10H20O4/c1-9(2,5-11)7-14-8(13)10(3,4)6-12/h11-12H,5-7H2,1-4H3",SZCWBURCISJFEZ-UHFFFAOYSA-N,CC(C)(CO)COC(=O)C(C)(C)CO,0.0682018165,0.0296763309,2,G3,204.26599999999996,0.5665999999999998,52.692600000000034,14.0,4.0,2.0,4.0,5.0,84.0,0.0,0.0,0.0,0.0,66.76,84.88726489134169,4.098442002267489,196.29867917997393
A-4041,"copper(2+) ion tetrasodium 8-[(4-amino-6-chloro-1,3,5-triazin-2-yl)amino]-2-[(E)-2-(1-oxido-4,8-disulfonatonaphthalen-2-yl)diazen-1-yl]-3,6-disulfonatonaphthalen-1-olate","InChI=1S/C23H16ClN7O14S4.Cu.4Na/c24-21-27-22(25)29-23(28-21)26-11-6-9(46(34,35)36)4-8-5-15(49(43,44)45)18(20(33)16(8)11)31-30-12-7-14(48(40,41)42)10-2-1-3-13(47(37,38)39)17(10)19(12)32;;;;;/h1-7,32-33H,(H,34,35,36)(H,37,38,39)(H,40,41,42)(H,43,44,45)(H3,25,26,27,28,29);;;;;/q;+2;4*+1/p-6",BQWFGICULAHUSM-UHFFFAOYSA-H,[Na+].[Na+].[Na+].[Na+].[Cu++].Nc1nc(Cl)nc(Nc2cc(cc3cc(c(N=Nc4cc(c5cccc(c5c4[O-])[S]([O-])(=O)=O)[S]([O-])(=O)=O)c([O-])c23)[S]([O-])(=O)=O)[S]([O-])(=O)=O)n1,-0.5907814418999999,0.0,1,G1,927.5950000000004,-11.650300000000009,155.34889999999993,54.0,21.0,2.0,31.0,8.0,267.0,5.0,0.0,0.0,5.0,376.3599999999999,408.55989179754937,5.6179970813798995e-06,2752.3451642260006
A-4043,"1,3-diaminourea","InChI=1S/CH6N4O/c2-4-1(6)5-3/h2-3H2,(H2,4,5,6)",XEVRDFDBXJMZFG-UHFFFAOYSA-N,NNC(=O)NN,0.4145585536,0.0,1,G1,90.08600000000001,-1.9670000000000005,20.04220000000001,6.0,3.0,4.0,5.0,0.0,36.0,0.0,0.0,0.0,0.0,93.16999999999999,34.62055092958478,2.9881608821342693,45.50977500432694
A-4044,pentan-2-ol,"InChI=1S/C5H12O/c1-3-4-5(2)6/h5-6H,3-4H2,1-2H3",JYVLIDXNZAXMDK-UHFFFAOYSA-N,CCCC(C)O,-0.2541408245,0.02087958775000001,2,G3,88.14999999999999,1.1673,26.58879999999999,6.0,1.0,1.0,1.0,2.0,38.0,0.0,0.0,0.0,0.0,20.23,38.99325323761199,2.6272148478988635,25.11941547876375
A-4045,"sodium 1-(3,4-dihydro-6-methyl-2,4-dioxo-2H-pyran-3-ylidene)ethanolate","InChI=1S/C8H7O4.Na/c1-4-3-6(10)7(5(2)9)8(11)12-4;/h3H,1-2H3;/q-1;+1",YIOCQGHBBNGBND-UHFFFAOYSA-N,[Na+].CC(=O)[C-]1C(=O)OC(=CC1=O)C,0.0845613317,0.0,1,G1,190.12999999999997,-2.7660799999999997,41.58250000000001,13.0,4.0,0.0,5.0,1.0,64.0,1.0,0.0,0.0,1.0,64.35,96.22901220953908,1.4399997042000626e-06,395.25554659834296
A-4047,3-methylphenol,"InChI=1S/C7H8O/c1-6-3-2-4-7(8)5-6/h2-5,8H,1H3",RLSSMJSEOOYNOY-UHFFFAOYSA-N,Cc1cccc(O)c1,-0.662918503,0.007521002499999985,2,G3,108.13999999999999,1.7006199999999998,32.843799999999995,8.0,1.0,1.0,1.0,0.0,42.0,1.0,0.0,0.0,1.0,20.23,48.59057898608958,3.077660437970554,164.24662946459569
A-4049,methanethiol,"InChI=1S/CH4S/c1-2/h2H,1H3",LSDPWZHWYPCBBB-UHFFFAOYSA-N,CS,-0.3148794359,0.0899176001,2,G3,48.11000000000001,0.546,14.910000000000002,2.0,1.0,1.0,1.0,0.0,14.0,0.0,0.0,0.0,0.0,0.0,19.894317691231276,1.0,2.0
A-4052,2-propyloxirane,"InChI=1S/C5H10O/c1-2-3-5-4-6-5/h5H,2-4H2,1H3",SYURNNNQIFDVCA-UHFFFAOYSA-N,CCCC1CO1,-0.57344678,0.0,1,G1,86.134,1.1853,24.64799999999999,6.0,1.0,0.0,1.0,2.0,36.0,0.0,1.0,1.0,1.0,12.53,38.30673356139363,1.8762858948376273,39.20310343869658
A-4055,potassium difluorodihydroxyboranuide,"InChI=1S/BF2H2O2.K/c2-1(3,4)5;/h4-5H;/q-1;+1",VRMTUNITGONABS-UHFFFAOYSA-N,[K+].O[B-](O)(F)F,-0.724347118,0.1789299664209986,4,G5,121.92,-3.6504000000000003,12.4076,6.0,2.0,2.0,6.0,0.0,32.0,0.0,0.0,0.0,0.0,40.46,76.04297620220316,0.0,27.019550008653873
A-4056,sodium 5-[[4-acetamido-2-(trifluoromethyl)phenyl]azo]-6-amino-4-hydroxynaphthalene-2-sulphonate,"InChI=1S/C19H15F3N4O5S.Na/c1-9(27)24-11-3-5-15(13(7-11)19(20,21)22)25-26-18-14(23)4-2-10-6-12(32(29,30)31)8-16(28)17(10)18;/h2-8,23,25-26H,1H3,(H,24,27)(H,29,30,31);/q;+1/p-1",OESZMLMGVFCVEX-UHFFFAOYSA-M,[Na+].CC(=O)Nc1ccc(NNC2=C3C(=O)C=C(C=C3C=CC2=N)[S]([O-])(=O)=O)c(c1)C(F)(F)F,-1.3288181975,0.0,1,G1,490.39500000000015,-0.6338300000000001,107.269,33.0,8.0,4.0,14.0,5.0,168.0,1.0,0.0,2.0,3.0,151.28,207.5723357828002,3.8533275034757745e-06,1280.5827610551214
A-4061,benzoate; diaminomethylideneazanium,"InChI=1S/C7H6O2.CH6N3/c8-7(9)6-4-2-1-3-5-6;2-1(3)4/h1-5H,(H,8,9);2-4H2/q;+1/p-1",KNBXROBXQPEXAM-UHFFFAOYSA-M,N[C+](N)N.[O-]C(=O)c1ccccc1,0.0050162556,0.0,1,G1,181.19500000000002,-1.640409999999999,46.57770000000001,13.0,5.0,3.0,5.0,1.0,70.0,1.0,0.0,0.0,1.0,118.19,76.14254644509734,3.0999999042847253e-07,246.07098126568084
A-4063,"disodium bis[(oxoboranyl)oxy]bicyclo[5.5.1]hexaboroxane-3,5-bis(olate)",InChI=1S/8BO3.2Na.4H2O/c8*2-1(3)4;;;;;;/h;;;;;;;;;;4*1H2/q8*-3;2*+1;;;;,RHSGYAYYVYMXIF-UHFFFAOYSA-N,O.O.O.O.[Na+].[Na+].[O-]B([O-])[O-].[O-]B([O-])[O-].[O-]B([O-])[O-].[O-]B([O-])[O-].[O-]B([O-])[O-].[O-]B([O-])[O-].[O-]B([O-])[O-].[O-]B([O-])[O-],-0.4201864202,0.0,1,G1,588.5120000000004,-40.87319999999999,60.487200000000016,38.0,24.0,0.0,38.0,0.0,224.0,0.0,0.0,0.0,0.0,679.4399999999996,258.64660688692254,-1.4117647042214532e-08,148.8544077105511
A-4064,sodium 2-phenoxyacetate,"InChI=1S/C8H8O3.Na/c9-8(10)6-11-7-4-2-1-3-5-7;/h1-5H,6H2,(H,9,10);/q;+1/p-1",WPTJBFNYRRZIDZ-UHFFFAOYSA-M,[Na+].[O-]C(=O)COc1ccccc1,0.1085957051,0.0,1,G1,174.131,-3.180699999999997,36.94400000000001,12.0,3.0,0.0,4.0,3.0,58.0,1.0,0.0,0.0,1.0,49.36,92.6439880527488,1.20999969337508e-06,235.31810563069448
A-4066,"sodium 4-{[4-(diethylamino)phenyl][4-(diethyliminio)cyclohexa-2,5-dien-1-ylidene]methyl}benzene-1,3-disulfonate","InChI=1S/C27H32N2O6S2.Na/c1-5-28(6-2)22-13-9-20(10-14-22)27(21-11-15-23(16-12-21)29(7-3)8-4)25-18-17-24(36(30,31)32)19-26(25)37(33,34)35;/h9-19H,5-8H2,1-4H3,(H-,30,31,32,33,34,35);/q;+1/p-1",SJEYSFABYSGQBG-UHFFFAOYSA-M,[Na+].CCN(CC)c1ccc(cc1)[C+](c2ccc(cc2)N(CC)CC)c3ccc(cc3[S]([O-])(=O)=O)[S]([O-])(=O)=O,-0.40668926850000003,0.0,1,G1,566.6770000000004,1.2103900000000014,142.92339999999984,38.0,8.0,0.0,11.0,11.0,198.0,3.0,0.0,0.0,3.0,120.88,248.02040954439454,5.0699910505998875e-06,1363.8945254971516
A-4070,2-chlorophenol,"InChI=1S/C6H5ClO/c7-5-3-1-2-4-6(5)8/h1-4,8H",ISPYQTSUDJAMAB-UHFFFAOYSA-N,Oc1ccccc1Cl,-0.7538392019,0.1451426870684993,3,G5,128.558,2.0456000000000003,33.1168,8.0,1.0,1.0,2.0,0.0,42.0,1.0,0.0,0.0,1.0,20.23,52.52890309857465,3.134861511345448,164.63833891467198
A-4073,"4-bromo-1,2-dichlorobenzene",InChI=1S/C6H3BrCl2/c7-4-1-2-5(8)6(9)3-4/h1-3H,CFPZDVAZISWERM-UHFFFAOYSA-N,Clc1ccc(Br)cc1Cl,-1.0114935501,0.0,1,G1,225.89999999999998,3.7559000000000005,44.16200000000001,9.0,0.0,0.0,3.0,0.0,48.0,1.0,0.0,0.0,1.0,0.0,71.90548317890166,3.171678030440915,222.29788705001033
A-4074,butyldimethylamine,"InChI=1S/C6H15N/c1-4-5-6-7(2)3/h4-6H2,1-3H3/p+1",DJEQZVQFEPKLOY-UHFFFAOYSA-O,CCCC[NH+](C)C,-0.6670324644,0.0,1,G1,102.20099999999998,-0.0689999999999995,32.58569999999998,7.0,0.0,1.0,1.0,3.0,44.0,0.0,0.0,0.0,0.0,4.44,46.32379527001596,2.678257743164726,33.16125945873016
A-4075,tetrasodium 4-hydroxy-7-[({5-hydroxy-7-sulfonato-6-[(E)-2-(6-sulfonatonaphthalen-2-yl)diazen-1-yl]naphthalen-2-yl}carbamoyl)amino]-3-[(E)-2-(6-sulfonatonaphthalen-2-yl)diazen-1-yl]naphthalene-2-sulfonate,"InChI=1S/C41H28N6O15S4.4Na/c48-34-20-33(46-44-26-11-12-28-22(15-26)4-2-5-35(28)63(51,52)53)40(66(60,61)62)30-14-10-25(18-32(30)34)43-41(50)42-24-9-13-29-23(16-24)17-37(65(57,58)59)38(39(29)49)47-45-27-8-7-21-3-1-6-36(31(21)19-27)64(54,55)56;;;;/h1-20,44-46H,(H,42,50)(H,51,52,53)(H,54,55,56)(H,57,58,59)(H,60,61,62);;;;/q;4*+1/p-4/b43-25?,47-38+;;;;",NBJHNXDETPQRBX-VHSPQIIZSA-J,[Na+].[Na+].[Na+].[Na+].[O-][S](=O)(=O)c1cccc2cc(NNC3=CC(=O)C4=CC(C=CC4=C3[S]([O-])(=O)=O)=NC(=O)Nc5ccc6C(=O)C(=N/Nc7ccc8cccc(c8c7)[S]([O-])(=O)=O)/C(=Cc6c5)[S]([O-])(=O)=O)ccc12,-0.6872171371,0.0,1,G1,1060.8980000000001,-8.280600000000032,233.5750999999998,70.0,19.0,4.0,29.0,10.0,336.0,5.0,0.0,3.0,8.0,352.8499999999999,486.5006182672992,2.6644959326213454e-06,3782.0686003022047
A-4076,2-[1-(aminomethyl)cyclohexyl]acetic acid hydrochloride,"InChI=1S/C9H17NO2.ClH/c10-7-9(6-8(11)12)4-2-1-3-5-9;/h1-7,10H2,(H,11,12);1H",XBUDZAQEMFGLEU-UHFFFAOYSA-N,[H+].[Cl-].NCC1(CCCCC1)CC(O)=O,0.0190211463,0.013943346044955132,3,G5,207.70099999999996,-1.513199999999998,47.93720000000003,13.0,2.0,2.0,4.0,3.0,78.0,0.0,1.0,1.0,1.0,63.32,86.58649496077065,0.0,172.19488940668188
A-4078,guanidine hydrochloride,"InChI=1S/CH5N3.ClH/c2-1(3)4;/h(H5,2,3,4);1H",PJJJBBJSCAKJQF-UHFFFAOYSA-N,[H+].[Cl-].NC(N)=N,1.3522850438999998,0.0,1,G1,95.53300000000002,-4.04493,17.213500000000003,5.0,1.0,3.0,4.0,0.0,32.0,0.0,0.0,0.0,0.0,75.89,37.742275043164724,-4.4999999250000016e-08,33.774437510817336
A-4082,"ethane-1,2-diyl bis(3-oxobutanoate)","InChI=1S/C10H14O6/c1-7(11)5-9(13)15-3-4-16-10(14)6-8(2)12/h3-6H2,1-2H3",SJCUPJATWUWGAV-UHFFFAOYSA-N,CC(=O)CC(=O)OCCOC(=O)CC(C)=O,-0.033755900299999995,0.0,1,G1,230.21599999999995,0.03100000000000014,52.51400000000003,16.0,6.0,0.0,6.0,7.0,90.0,0.0,0.0,0.0,0.0,86.74000000000001,92.89690891658783,3.5281839372905974,263.6843797833106
A-4083,sodium 4-aminobenzene-1-sulfonate,"InChI=1S/C6H7NO3S.Na/c7-5-1-3-6(4-2-5)11(8,9)10;/h1-4H,7H2,(H,8,9,10);/q;+1/p-1",KSVSZLXDULFGDQ-UHFFFAOYSA-M,[Na+].Nc1ccc(cc1)[S]([O-])(=O)=O,0.0379554154,0.0,1,G1,195.17499999999995,-2.8230999999999984,38.817600000000006,12.0,4.0,1.0,6.0,1.0,60.0,1.0,0.0,0.0,1.0,83.22,92.81332944926226,1.2099997657000466e-06,345.56087669721546
A-4084,"1,3,5-trioxane",InChI=1S/C3H6O3/c1-4-2-6-3-5-1/h1-3H2,BGJSXRVXTHVRSN-UHFFFAOYSA-N,C1OCOCO1,0.37171712590000006,0.045403707000000015,2,G3,90.078,-0.07769999999999999,17.855999999999998,6.0,3.0,0.0,3.0,0.0,36.0,0.0,1.0,1.0,1.0,27.69,35.803939791614184,2.0,21.509775004326936
A-4086,manganese(2+) ion hydrogen phosphate,"InChI=1S/Mn.H3O4P/c;1-5(2,3)4/h;(H3,1,2,3,4)/q+2;/p-2",CPSYWNLKRDURMG-UHFFFAOYSA-L,[Mn++].O[P]([O-])([O-])=O,0.1455471695,0.0,1,G1,150.916,-2.1951,9.8253,6.0,3.0,1.0,6.0,0.0,37.0,0.0,0.0,0.0,0.0,83.41999999999999,44.90224111671682,0.0,53.68367439558379
A-4087,zinc(2+) ion sulfate,"InChI=1S/H2O4S.H2O.Zn/c1-5(2,3)4;;/h(H2,1,2,3,4);1H2;/q;;+2/p-2",RNZCSKGULNFAMC-UHFFFAOYSA-L,O.[Zn++].[O-][S]([O-])(=O)=O,0.0702954323,0.0,1,G1,179.468,-2.1652,14.0884,7.0,4.0,0.0,7.0,0.0,40.0,0.0,0.0,0.0,0.0,111.75999999999999,53.37026402270683,-7.999999835000003e-08,91.24856184822198
A-4088,disodium oxosilanebis(olate),InChI=1S/2Na.O3Si/c;;1-4(2)3/q2*+1;-2,NTHWMYGWWRZVTN-UHFFFAOYSA-N,[Na+].[Na+].[O-][Si]([O-])=O,0.23563525510000002,0.0,1,G1,122.06299999999999,-8.8696,6.440499999999999,6.0,3.0,0.0,6.0,0.0,24.0,0.0,0.0,0.0,0.0,63.19,81.24068428325154,-4.4999999250000016e-08,31.77443751081734
A-4091,"sodium 2-{2-[(2,6-dichlorophenyl)amino]phenyl}acetate","InChI=1S/C14H11Cl2NO2.Na/c15-10-5-3-6-11(16)14(10)17-12-7-2-1-4-9(12)8-13(18)19;/h1-7,17H,8H2,(H,18,19);/q;+1/p-1",KPHWPUGNDIVLNH-UHFFFAOYSA-M,[Na+].[O-]C(=O)Cc1ccccc1Nc2c(Cl)cccc2Cl,-1.1742318477,0.0,1,G1,318.135,0.03340000000000215,74.89770000000003,20.0,3.0,1.0,6.0,4.0,98.0,2.0,0.0,0.0,2.0,52.16,148.74393166667733,1.9999988342506994e-06,599.6229405866209
A-4092,"disodium 3,3'-[[6-[bis(2-hydroxyethyl)amino]-1,3,5-triazine-2,4-diyl]bis[imino(3-methoxy-4,1-phenylene)azo]]bis[benzenesulphonate]","InChI=1S/C33H34N10O10S2.2Na/c1-52-29-19-23(41-39-21-5-3-7-25(17-21)54(46,47)48)9-11-27(29)34-31-36-32(38-33(37-31)43(13-15-44)14-16-45)35-28-12-10-24(20-30(28)53-2)42-40-22-6-4-8-26(18-22)55(49,50)51;;/h3-12,17-20,44-45H,13-16H2,1-2H3,(H,46,47,48)(H,49,50,51)(H2,34,35,36,37,38);;/q;2*+1/p-2",NUTZBMSWUMFSIW-UHFFFAOYSA-L,[Na+].[Na+].COc1cc(ccc1Nc2nc(Nc3ccc(cc3OC)N=Nc4cccc(c4)[S]([O-])(=O)=O)nc(n2)N(CCO)CCO)N=Nc5cccc(c5)[S]([O-])(=O)=O,-1.6008155248,0.0,1,G1,838.7929999999999,-1.1859999999999935,195.9273999999997,57.0,20.0,4.0,24.0,17.0,288.0,5.0,0.0,0.0,5.0,288.72999999999996,371.1611195282808,4.351240756195504e-06,2283.5328557413595
A-4093,"2-ethyl-2-{[2-ethyl-3-hydroxy-2-(hydroxymethyl)propoxy]methyl}propane-1,3-diol","InChI=1S/C12H26O5/c1-3-11(5-13,6-14)9-17-10-12(4-2,7-15)8-16/h13-16H,3-10H2,1-2H3",WMYINDVYGQKYMI-UHFFFAOYSA-N,CCC(CO)(CO)COCC(CC)(CO)CO,-1.076302279,0.04635113950000003,2,G3,250.33499999999992,-0.2350000000000002,64.61020000000006,17.0,5.0,4.0,5.0,10.0,104.0,0.0,0.0,0.0,0.0,90.15,103.04409452448317,4.276302630183746,150.80568456189224
A-4094,methyl 3-sulfanylpropanoate,"InChI=1S/C4H8O2S/c1-6-4(5)2-3-7/h7H,2-3H2,1H3",LDTLDBDUBGAEDT-UHFFFAOYSA-N,COC(=O)CCS,-0.7575876082999999,0.0,1,G1,120.17300000000002,0.4792999999999999,30.48599999999999,7.0,3.0,1.0,3.0,2.0,42.0,0.0,0.0,0.0,0.0,26.3,48.26421136397174,3.002590528674132,62.71013448036486
A-4096,sodium 4-[(4-methyl-3-nitrobenzoyl)amino]benzenesulfonate,"InChI=1S/C14H12N2O6S.Na/c1-9-2-3-10(8-13(9)16(18)19)14(17)15-11-4-6-12(7-5-11)23(20,21)22;/h2-8H,1H3,(H,15,17)(H,20,21,22);/q;+1/p-1",YLDIMJOASVRWAO-UHFFFAOYSA-M,[Na+].Cc1ccc(cc1[N+]([O-])=O)C(=O)Nc2ccc(cc2)[S]([O-])(=O)=O,-1.232035998,0.0,1,G1,358.3070000000001,-0.9363799999999987,80.19180000000003,24.0,6.0,1.0,10.0,4.0,120.0,2.0,0.0,0.0,2.0,129.44,159.62477719325844,2.8799974464023286e-06,880.6377218500312
A-4097,(4-methyl-1H-imidazol-5-yl)methanol,"InChI=1S/C5H8N2O/c1-4-5(2-8)7-3-6-4/h3,8H,2H2,1H3,(H,6,7)",AXJZCJSXNZZMDU-UHFFFAOYSA-N,Cc1[nH]cnc1CO,0.2683337666,0.0,1,G1,112.13199999999999,0.21041999999999994,29.24749999999999,8.0,2.0,2.0,3.0,1.0,44.0,1.0,0.0,0.0,1.0,48.91,47.384329502446995,2.922518308363087,170.6915279102714
A-4099,potassium dihydrogenorthophosphate,"InChI=1S/K.H3O4P/c;1-5(2,3)4/h;(H3,1,2,3,4)/q+1;/p-1",GNSKLFRGEWLPPA-UHFFFAOYSA-M,[K+].O[P](O)([O-])=O,0.1842562687,0.0,1,G1,136.084,-4.5565999999999995,12.0441,6.0,2.0,2.0,6.0,0.0,32.0,0.0,0.0,0.0,0.0,80.59,77.22918553985866,0.0,53.68367439558379
A-4100,prop-2-enal,"InChI=1S/C3H4O/c1-2-3-4/h2-3H,1H2",HGINCPLSRVDWNT-UHFFFAOYSA-N,C=CC=O,0.5693792548,0.2003103726,2,G3,56.064,0.37129999999999996,16.261,4.0,1.0,0.0,1.0,1.0,22.0,0.0,0.0,0.0,0.0,17.07,24.941054324482277,2.7320508075688776,24.264662506490403
A-4102,cerium(+3) cation; hydrogen sulfate; sulfate; tetrahydrate,"InChI=1S/Ce.2H2O4S.4H2O/c;2*1-5(2,3)4;;;;/h;2*(H2,1,2,3,4);4*1H2/q+3;;;;;;/p-3",ZBNJQJDKRZKDSV-UHFFFAOYSA-K,O.O.O.O.[Ce+3].O[S]([O-])(=O)=O.[O-][S]([O-])(=O)=O,-0.2918169735,0.0,1,G1,405.3100000000002,-5.6321999999999965,37.25580000000001,15.0,7.0,1.0,15.0,0.0,97.0,0.0,0.0,0.0,0.0,283.69,118.44965855557305,-1.2799999947199998e-08,209.99724466198504
A-4103,azane; molybdenum; tetracosahydrate,InChI=1S/7Mo.6H3N.24H2O/h;;;;;;;6*1H3;24*1H2,QGAVSDVURUSLQK-UHFFFAOYSA-N,N.N.N.N.N.N.O.O.O.O.O.O.O.O.O.O.O.O.O.O.O.O.O.O.O.O.O.O.O.O.[Mo].[Mo].[Mo].[Mo].[Mo].[Mo].[Mo],-0.7664726234999999,0.0,1,G1,1206.1260000000009,-18.8383,116.86379999999983,37.0,6.0,6.0,37.0,0.0,282.0,0.0,0.0,0.0,0.0,966.0,312.4376788679975,-0.0,47.54941505223323
A-4104,ammonium perchlorate,"InChI=1S/ClHO4.H3N/c2-1(3,4)5;/h(H,2,3,4,5);1H3",HHEFNVCDPLQQTP-UHFFFAOYSA-N,[NH4+].[O-][Cl](=O)(=O)=O,0.24366283579999998,0.0,1,G1,117.488,-4.3798,5.9848,6.0,4.0,1.0,6.0,0.0,40.0,0.0,0.0,0.0,0.0,128.74,36.147652553136226,0.0,23.019550008653873
A-4105,"Cuprate(6-), [2-[[[[3-[[4-chloro-6-[[4-[[4-chloro-6-[(3-sulfophenyl)amino]-1,3,5-triazin-2-yl]amino]-2,5-disulfophenyl]amino]-1,3,5-triazin-2-yl]amino]-2-hydroxy-5-sulfophenyl]azo]phenylmethyl]azo]-5-sulfobenzoato(8-)]-, pentasodium hydrogen, (SP-4-3)-","InChI=1S/C38H28Cl2N14O18S5.Cu.5Na/c39-33-45-35(41-18-7-4-8-19(11-18)73(58,59)60)49-36(46-33)42-24-15-29(77(70,71)72)25(16-28(24)76(67,68)69)43-37-47-34(40)48-38(50-37)44-26-13-21(75(64,65)66)14-27(30(26)55)52-54-31(17-5-2-1-3-6-17)53-51-23-10-9-20(74(61,62)63)12-22(23)32(56)57;;;;;;/h1-16H,(H12,41,42,43,44,45,46,47,48,49,50,51,52,53,54,55,56,57,58,59,60,61,62,63,64,65,66,67,68,69,70,71,72);;;;;;/q;+2;5*+1/p-7",NKKZYKFZYINUQZ-UHFFFAOYSA-G,[Na+].[Na+].[Na+].[Na+].[Na+].[Cu++].[O-]C(=O)c1cc(ccc1NNC(=N/Nc2cc(cc([N-]c3nc(Cl)nc(n3)N=C4C=C(C(C=C4[S]([O-])(=O)=O)=Nc5nc(Cl)nc(Nc6cccc(c6)[S]([O-])(=O)=O)n5)[S]([O-])(=O)=O)c2[O-])[S]([O-])(=O)=O)\c7ccccc7)[S]([O-])(=O)=O.[H+],-0.8254112341,0.0,1,G1,1371.403,-14.169300000000009,256.85029999999983,83.0,30.0,4.0,45.0,17.0,411.0,6.0,0.0,1.0,7.0,525.8299999999999,601.5919310125404,9.841418375877678e-06,4234.897334485908
A-4106,2-methylprop-2-enamide,"InChI=1S/C4H7NO/c1-3(2)4(5)6/h1H2,2H3,(H2,5,6)",FQPSGWSUVKBHSU-UHFFFAOYSA-N,CC(=C)C(N)=O,0.3753911904,0.15267568475,2,G3,85.10600000000001,0.047800000000000176,24.008399999999995,6.0,1.0,1.0,2.0,1.0,34.0,0.0,0.0,0.0,0.0,43.09,36.6458871358916,3.5677034550432034,73.5488750216347
A-4107,"hexasodium 2-{[4-(diethylamino)-6-({4-[(E)-2-(4-{[4-(diethylamino)-6-[(2,5-disulfonatophenyl)amino]-1,3,5-triazin-2-yl]amino}-2-sulfonatophenyl)ethenyl]-3-sulfonatophenyl}amino)-1,3,5-triazin-2-yl]amino}benzene-1,4-disulfonate","InChI=1S/C40H44N12O18S6.6Na/c1-5-51(6-2)39-47-35(45-37(49-39)43-29-21-27(71(53,54)55)15-17-31(29)73(59,60)61)41-25-13-11-23(33(19-25)75(65,66)67)9-10-24-12-14-26(20-34(24)76(68,69)70)42-36-46-38(50-40(48-36)52(7-3)8-4)44-30-22-28(72(56,57)58)16-18-32(30)74(62,63)64;;;;;;/h9-22H,5-8H2,1-4H3,(H,53,54,55)(H,56,57,58)(H,59,60,61)(H,62,63,64)(H,65,66,67)(H,68,69,70)(H2,41,43,45,47,49)(H2,42,44,46,48,50);;;;;;/q;6*+1/p-6/b10-9+;;;;;;",KMPSLWWDIJFERN-PTNBLCRGSA-H,[Na+].[Na+].[Na+].[Na+].[Na+].[Na+].CCN(CC)c1nc(Nc2ccc(\C=C\c3ccc(Nc4nc(Nc5cc(ccc5[S]([O-])(=O)=O)[S]([O-])(=O)=O)nc(n4)N(CC)CC)cc3[S]([O-])(=O)=O)c(c2)[S]([O-])(=O)=O)nc(Nc6cc(ccc6[S]([O-])(=O)=O)[S]([O-])(=O)=O)n1,-0.8122490226000001,0.0,1,G1,1305.1520000000003,-15.657599999999933,262.3819999999998,82.0,30.0,4.0,42.0,22.0,408.0,6.0,0.0,0.0,6.0,475.1399999999999,604.965910018632,1.0934986967641047e-05,3751.936236990763
A-4108,2-(methylamino)-1-phenylpropan-1-ol hydrochloride,"InChI=1S/C10H15NO.ClH/c1-8(11-2)10(12)9-6-4-3-5-7-9;/h3-8,10-12H,1-2H3;1H/t8-,10-;/m0./s1",BALXUFOVQVENIU-GNAZCLTHSA-N,[Cl-].CN[C@@H](C)[C@H](O)c1ccccc1.[H+],-0.003669443,0.0,1,G1,201.697,-1.5555999999999983,51.035500000000035,13.0,2.0,2.0,3.0,3.0,74.0,1.0,0.0,0.0,1.0,32.26,86.87315913493241,0.0,232.8234244616113