ID,Name,InChI,InChIKey,SMILES,Solubility,SD,Ocurrences,Group,MolWt,MolLogP,MolMR,HeavyAtomCount,NumHAcceptors,NumHDonors,NumHeteroatoms,NumRotatableBonds,NumValenceElectrons,NumAromaticRings,NumSaturatedRings,NumAliphaticRings,RingCount,TPSA,LabuteASA,BalabanJ,BertzCT
A-676,2-[(2-hydroxyethyl)[(9E)-octadec-9-en-1-yl]amino]ethan-1-ol,"InChI=1S/C22H45NO2/c1-2-3-4-5-6-7-8-9-10-11-12-13-14-15-16-17-18-23(19-21-24)20-22-25/h9-10,24-25H,2-8,11-22H2,1H3/b10-9+",BITAPBDLHJQAID-MDZDMXLPSA-N,CCCCCCCC/C=C/CCCCCCCCN(CCO)CCO,-4.7801182897,0.0,1,G1,355.6070000000001,5.310500000000006,110.06360000000008,25.0,3.0,2.0,3.0,20.0,150.0,0.0,0.0,0.0,0.0,43.7,157.0617335725695,3.232520543937487,262.7528342511749
A-677,"tributyl benzene-1,2,4-tricarboxylate","InChI=1S/C21H30O6/c1-4-7-12-25-19(22)16-10-11-17(20(23)26-13-8-5-2)18(15-16)21(24)27-14-9-6-3/h10-11,15H,4-9,12-14H2,1-3H3",RJIFVNWOLLIBJV-UHFFFAOYSA-N,CCCCOC(=O)c1ccc(C(=O)OCCCC)c(c1)C(=O)OCCCC,-4.807173711,0.0,1,G1,378.46500000000015,4.557300000000004,102.01350000000006,27.0,6.0,0.0,6.0,12.0,150.0,1.0,0.0,0.0,1.0,78.90000000000002,160.73073682409807,3.0087265310995903,623.0978890494772
A-679,"1-(butan-2-yl)-4-{4-[4-(4-hydroxyphenyl)piperazin-1-yl]phenyl}-4,5-dihydro-1H-1,2,4-triazol-5-one","InChI=1S/C22H27N5O2/c1-3-17(2)27-22(29)26(16-23-27)20-6-4-18(5-7-20)24-12-14-25(15-13-24)19-8-10-21(28)11-9-19/h4-11,16-17,28H,3,12-15H2,1-2H3",FFAQILVGBAELHN-UHFFFAOYSA-N,CCC(C)N1N=CN(C1=O)c2ccc(cc2)N3CCN(CC3)c4ccc(O)cc4,-4.8285219563999995,0.0,1,G1,393.4910000000002,3.0372000000000012,115.35880000000003,29.0,7.0,1.0,7.0,5.0,152.0,3.0,1.0,1.0,4.0,66.53,169.97157341041788,1.4331462555849939,998.9319320169533
A-680,3-(trimethoxysilyl)propyl prop-2-enoate,"InChI=1S/C9H18O5Si/c1-5-9(10)14-7-6-8-15(11-2,12-3)13-4/h5H,1,6-8H2,2-4H3",KBQVDAIIQCXKPI-UHFFFAOYSA-N,CO[Si](CCCOC(=O)C=C)(OC)OC,-4.6063887787,0.0,1,G1,234.32399999999998,0.9837999999999998,57.36100000000003,15.0,5.0,0.0,6.0,8.0,88.0,0.0,0.0,0.0,0.0,53.99000000000001,91.33586076099131,3.808771305633729,194.4147221602608
A-683,undecan-1-ol,"InChI=1S/C11H24O/c1-2-3-4-5-6-7-8-9-10-11-12/h12H,2-11H2,1H3",KJIOQYGWTQBHNH-UHFFFAOYSA-N,CCCCCCCCCCCO,-4.4804406676,0.0,1,G1,172.31199999999998,3.5095000000000023,54.31280000000004,12.0,1.0,1.0,1.0,9.0,74.0,0.0,0.0,0.0,0.0,20.23,77.18290592399167,2.72724281291869,61.404364101390854
A-686,barium(+2) cation; dioxidoboron,InChI=1S/BO2.Ba/c2-1-3;/q-2;+2,MLPBXDBEWJPBBI-UHFFFAOYSA-N,[Ba++].[O-][B][O-],-2.3407335191,0.0,1,G1,180.138,-3.1396,11.508,4.0,2.0,0.0,4.0,0.0,17.0,0.0,0.0,0.0,0.0,46.12,65.59601478398338,0.0,6.0
A-689,"(1S,2S,4S)-1,7,7-trimethylbicyclo[2.2.1]heptan-2-yl prop-2-enoate","InChI=1S/C13H20O2/c1-5-11(14)15-10-8-9-6-7-13(10,4)12(9,2)3/h5,9-10H,1,6-8H2,2-4H3/t9-,10?,13+/m0/s1",PSGCQDPCAWOCSH-BOURZNODSA-N,CC1(C)[C@H]2CC[C@]1(C)C(C2)OC(=O)C=C,-4.5830924552,0.2805331453000002,2,G3,208.30099999999996,2.9304000000000014,59.30600000000004,15.0,2.0,0.0,2.0,2.0,84.0,0.0,2.0,2.0,2.0,26.3,91.69235839089679,2.1860629445674684,305.6578138422799
A-690,"2-quinolin-2-yl-1H-indene-1,3(2H)-dione","InChI=1S/C18H11NO2/c20-17-12-6-2-3-7-13(12)18(21)16(17)15-10-9-11-5-1-4-8-14(11)19-15/h1-10,16H",IZMJMCDDWKSTTK-UHFFFAOYSA-N,O=C1C(c2ccc3ccccc3n2)C(=O)c4ccccc14,-4.7011861265,0.75377624935,2,G2,273.291,3.3976000000000015,79.58700000000003,21.0,3.0,0.0,3.0,1.0,100.0,3.0,0.0,1.0,4.0,47.03,120.80184922799086,1.8649637073068857,863.3687317678382
A-691,tert-butoxy 2-ethylhexyl carbonate,"InChI=1S/C13H26O4/c1-6-8-9-11(7-2)10-15-12(14)16-17-13(3,4)5/h11H,6-10H2,1-5H3",BRQMAAFGEXNUOL-UHFFFAOYSA-N,CCCCC(CC)COC(=O)OOC(C)(C)C,-4.6599585126,0.0,1,G1,246.34699999999995,4.086100000000004,66.57700000000006,17.0,4.0,0.0,4.0,7.0,102.0,0.0,0.0,0.0,0.0,44.760000000000005,104.55000950489153,3.7322327644653677,207.95522693971725
A-692,dicyclopentyldimethoxysilane,"InChI=1S/C12H24O2Si/c1-13-15(14-2,11-7-3-4-8-11)12-9-5-6-10-12/h11-12H,3-10H2,1-2H3",JWCYDYZLEAQGJJ-UHFFFAOYSA-N,CO[Si](OC)(C1CCCC1)C2CCCC2,-4.6327996787,0.5261198090499999,2,G2,228.4079999999999,3.6098000000000026,64.20800000000006,15.0,2.0,0.0,3.0,4.0,88.0,0.0,2.0,2.0,2.0,18.46,94.59668674134117,2.125017941958907,173.79880014551497
A-693,"3,3,5-trimethylcyclohexyl 2-methylprop-2-enoate","InChI=1S/C13H22O2/c1-9(2)12(14)15-11-6-10(3)7-13(4,5)8-11/h10-11H,1,6-8H2,2-5H3",DABQKEQFLJIRHU-UHFFFAOYSA-N,CC1CC(CC(C)(C)C1)OC(=O)C(C)=C,-4.5985985087,0.0,1,G1,210.31699999999998,3.320500000000002,61.490000000000045,15.0,2.0,0.0,2.0,2.0,86.0,0.0,1.0,1.0,1.0,26.3,92.69818954442601,2.5571474595925494,265.7095182335194
A-697,"Butanal, reaction products with aniline","InChI=1S/C6H7N.C4H8O/c7-6-4-2-1-3-5-6;1-2-3-4-5/h1-5H,7H2;4H,2-3H2,1H3",SRGBNANKQPZXFZ-UHFFFAOYSA-N,CCCC=O.Nc1ccccc1,-4.5021013295,0.0,1,G1,165.23600000000002,2.2542,51.82640000000003,12.0,2.0,1.0,2.0,2.0,66.0,1.0,0.0,0.0,1.0,43.09,73.39841552766912,2.168571397154082e-07,196.253369807243
A-698,zinc(2+) ion didodecanoate,"InChI=1S/2C12H24O2.Zn/c2*1-2-3-4-5-6-7-8-9-10-11-12(13)14;/h2*2-11H2,1H3,(H,13,14);/q;;+2/p-2",GPYYEEJOMCKTPR-UHFFFAOYSA-L,[Zn++].CCCCCCCCCCCC([O-])=O.CCCCCCCCCCCC([O-])=O,-4.9505314842,0.0,1,G1,464.0180000000004,5.311900000000005,113.7020000000001,29.0,4.0,0.0,5.0,20.0,168.0,0.0,0.0,0.0,0.0,80.25999999999999,192.93359055952521,-4.5066664846666747e-07,302.84234884139187
A-699,"3-methyl-N-(3-{3-methyl-N-[2-(3-methyl-N-{2-[2-(2-methylheptadecyl)-4,5-dihydro-1H-imidazol-1-yl]ethyl}octadecanamido)ethyl]octadecanamido}propyl)octadecanamide; 3-methyl-N-(3-{[2-(3-methyl-N-{2-[2-(2-methylheptadecyl)-4,5-dihydro-1H-imidazol-1-yl]ethyl}octadecanamido)ethyl]amino}propyl)octadecanamide; 3-methyl-N-(3-{[2-({2-[2-(2-methylheptadecyl)-4,5-dihydro-1H-imidazol-1-yl]ethyl}amino)ethyl]amino}propyl)octadecanamide; 3-methyl-N-[3-({2-[(2-{[2-(3-methyloctadecanamido)ethyl]amino}ethyl)amino]ethyl}amino)propyl]octadecanamide; 3-methyl-N-{2-[(2-{3-methyl-N-[2-(piperazin-1-yl)ethyl]octadecanamido}ethyl)amino]ethyl}octadecanamide; 3-methyl-N-{2-[2-(2-methylheptadecyl)-4,5-dihydro-1H-imidazol-1-yl]ethyl}-N-[2-(piperazin-1-yl)ethyl]octadecanamide; 3-methyl-N-{3-[(2-{3-methyl-N-[2-({2-[(4-methylnonadec-1-en-2-yl)amino]ethyl}amino)ethyl]octadecanamido}ethyl)amino]propyl}octadecanamide","InChI=1S/C18H36O2.C8H23N5/c1-2-3-4-5-6-7-8-9-10-11-12-13-14-15-16-17-18(19)20;9-1-3-11-5-7-13-8-6-12-4-2-10/h2-17H2,1H3,(H,19,20);11-13H,1-10H2",CDCSRZWJRXOXLQ-UHFFFAOYSA-N,CCCCCCCCCCCCCCCCCC(O)=O.NCCNCCNCCNCCN,-4.9604194489,0.0,1,G1,473.7910000000003,4.005100000000004,143.8997,33.0,6.0,6.0,7.0,26.0,200.0,0.0,0.0,0.0,0.0,125.42999999999999,205.15375883836336,0.0,349.5739446703817
A-701,(3Z)-hex-3-en-1-yl 2-hydroxybenzoate,"InChI=1S/C13H16O3/c1-2-3-4-7-10-16-13(15)11-8-5-6-9-12(11)14/h3-6,8-9,14H,2,7,10H2,1H3/b4-3+",IEPWIPZLLIOZLU-ONEGZZNKSA-N,CC/C=C/CCOC(=O)c1ccccc1O,-4.6439814041,0.0,1,G1,220.26800000000003,2.9053000000000018,62.43730000000004,16.0,3.0,1.0,3.0,5.0,86.0,1.0,0.0,0.0,1.0,46.53,95.36569596983564,2.4144167341440093,369.19538535705436
A-705,"(2S,5R)-5-methyl-2-(propan-2-yl)cyclohexan-1-one","InChI=1S/C10H18O/c1-7(2)9-5-4-8(3)6-10(9)11/h7-9H,4-6H2,1-3H3/t8-,9+/m1/s1",NFLGAXVYCFJBMK-BDAKNGLRSA-N,CC(C)[C@@H]1CC[C@@H](C)CC1=O,-2.4918772305,0.10505924042364748,3,G5,154.253,2.6477000000000013,46.35000000000002,11.0,1.0,0.0,1.0,1.0,64.0,0.0,1.0,1.0,1.0,17.07,69.17942100391355,2.5076939164331398,148.9517669080599
A-706,4-(methoxycarbonyl)-3-nitrobenzoic acid,"InChI=1S/C9H7NO6/c1-16-9(13)6-3-2-5(8(11)12)4-7(6)10(14)15/h2-4H,1H3,(H,11,12)",MIIADZYPHVTLPR-UHFFFAOYSA-N,COC(=O)c1ccc(cc1[N+]([O-])=O)C(O)=O,-2.6570018481,0.0,1,G1,225.15599999999998,1.0796,51.39520000000001,16.0,5.0,1.0,7.0,3.0,84.0,1.0,0.0,0.0,1.0,106.74000000000001,89.41002836697703,3.35771253075613,467.0670566154368
A-708,"1,3,5-trimethylbenzene","InChI=1S/C9H12/c1-7-4-8(2)6-9(3)5-7/h4-6H,1-3H3",AUHZEENZYGFFBQ-UHFFFAOYSA-N,Cc1cc(C)cc(C)c1,-3.3826570589999996,0.007091152300000347,2,G3,120.19499999999998,2.611860000000001,40.65300000000001,9.0,0.0,0.0,0.0,0.0,48.0,1.0,0.0,0.0,1.0,0.0,56.526229462686786,3.165670309917317,160.80051514850786
A-709,2-methyl-6-methylideneoct-7-en-2-yl acetate,"InChI=1S/C12H20O2/c1-6-10(2)8-7-9-12(4,5)14-11(3)13/h6H,1-2,7-9H2,3-5H3",DCXXKSXLKWAZNO-UHFFFAOYSA-N,CC(=O)OC(C)(C)CCCC(=C)C=C,-3.5974164985000003,0.18766769519999982,2,G3,196.28999999999996,3.2406000000000024,59.03300000000004,14.0,2.0,0.0,2.0,6.0,80.0,0.0,0.0,0.0,0.0,26.3,86.6494755513744,3.808919296563424,226.47622838888884
A-713,2-chloro-1-methyl-4-nitrobenzene,"InChI=1S/C7H6ClNO2/c1-5-2-3-6(9(10)11)4-7(5)8/h2-4H,1H3",LLYXJBROWQDVMI-UHFFFAOYSA-N,Cc1ccc(cc1Cl)[N+]([O-])=O,-3.5442781768000002,0.0,1,G1,171.583,2.5566200000000006,42.84340000000002,11.0,2.0,0.0,4.0,1.0,58.0,1.0,0.0,0.0,1.0,43.14,68.75258718327504,3.1515496683060507,298.492089776386
A-714,"N,N,N-trimethyloctadecan-1-aminium chloride","InChI=1S/C21H46N.ClH/c1-5-6-7-8-9-10-11-12-13-14-15-16-17-18-19-20-21-22(2,3)4;/h5-21H2,1-4H3;1H/q+1;/p-1",VBIIFPGSPJYLRR-UHFFFAOYSA-M,[Cl-].CCCCCCCCCCCCCCCCCC[N+](C)(C)C,-3.8514567881,0.0,1,G1,348.0590000000001,3.9581000000000017,102.44540000000009,23.0,0.0,0.0,2.0,17.0,142.0,0.0,0.0,0.0,0.0,0.0,154.16099172510988,0.0,210.377334085253
A-718,"N,N-dipropylpropan-1-amine","InChI=1S/C9H21N/c1-4-7-10(8-5-2)9-6-3/h4-9H2,1-3H3",YFTHZRPMJXBUME-UHFFFAOYSA-N,CCCN(CCC)CCC,-2.4722202552000003,0.09927617582385626,3,G5,143.27399999999997,2.5184000000000006,47.313000000000024,10.0,1.0,0.0,1.0,6.0,62.0,0.0,0.0,0.0,0.0,3.24,65.41862161320577,3.2950821163049606,47.48394345536403
A-719,ammonia,InChI=1S/H3N/h1H3,QGZKDVFQNNGYKY-UHFFFAOYSA-N,N,1.4518068893,0.02916546376845402,4,G5,17.031,0.16199999999999998,5.0221,1.0,1.0,1.0,1.0,0.0,8.0,0.0,0.0,0.0,0.0,35.0,7.50422812385033,0.0,0.0
A-722,2-oxo-N-{6-[(2-oxoazepane-1-carbonyl)amino]hexyl}azepane-1-carboxamide,"InChI=1S/C20H34N4O4/c25-17-11-5-3-9-15-23(17)19(27)21-13-7-1-2-8-14-22-20(28)24-16-10-4-6-12-18(24)26/h1-16H2,(H,21,27)(H,22,28)",YOVRNJUIHVNXCB-UHFFFAOYSA-N,O=C1CCCCCN1C(=O)NCCCCCCNC(=O)N2CCCCCC2=O,-3.9064006561,0.0,1,G1,394.51600000000025,2.771200000000001,105.62740000000007,28.0,4.0,2.0,8.0,7.0,158.0,0.0,2.0,2.0,2.0,98.82,166.92696900210456,1.498076736516945,504.3237759890967
A-724,3-methylbutyl 3-methylbutanoate,"InChI=1S/C10H20O2/c1-8(2)5-6-12-10(11)7-9(3)4/h8-9H,5-7H2,1-4H3",XINCECQTMHSORG-UHFFFAOYSA-N,CC(C)CCOC(=O)CC(C)C,-3.5540595352999995,0.0,1,G1,172.26799999999997,2.6218000000000012,49.86900000000003,12.0,2.0,0.0,2.0,5.0,72.0,0.0,0.0,0.0,0.0,26.3,75.29879738694964,3.3197808606558676,127.80026905978025
A-725,2-propylheptan-1-ol,"InChI=1S/C10H22O/c1-3-5-6-8-10(9-11)7-4-2/h10-11H,3-9H2,1-2H3",YLQLIQIAXYRMDL-UHFFFAOYSA-N,CCCCCC(CO)CCC,-3.5181985232,0.1576779810736071,4,G5,158.28499999999997,2.9753000000000016,49.62580000000003,11.0,1.0,1.0,1.0,7.0,68.0,0.0,0.0,0.0,0.0,20.23,70.81796380959503,3.203898482222308,71.27302875388389
A-726,4-[2-(4-aminophenyl)ethyl]aniline,"InChI=1S/C14H16N2/c15-13-7-3-11(4-8-13)1-2-12-5-9-14(16)10-6-12/h3-10H,1-2,15-16H2",UHNUHZHQLCGZDA-UHFFFAOYSA-N,Nc1ccc(CCc2ccc(N)cc2)cc1,-3.6457005741,0.0,1,G1,212.29600000000002,2.6362000000000005,69.11680000000003,16.0,2.0,2.0,2.0,3.0,82.0,2.0,0.0,0.0,2.0,52.04,95.89816294837966,1.9660146345787246,397.66648704843345
A-728,methyl nicotinate,"InChI=1S/C7H7NO2/c1-10-7(9)6-3-2-4-8-5-6/h2-5H,1H3",YNBADRVTZLEFNH-UHFFFAOYSA-N,COC(=O)c1cccnc1,-0.4595508588,0.0,1,G1,137.138,0.8681999999999999,35.5765,10.0,3.0,0.0,3.0,1.0,52.0,1.0,0.0,0.0,1.0,39.19,58.65600265878734,2.8526279288191434,220.30753299614886
A-731,"calcium 2,3-dihydroxybutanedioate","InChI=1S/C4H6O6.Ca/c5-1(3(7)8)2(6)4(9)10;/h1-2,5-6H,(H,7,8)(H,9,10);/q;+2/t1-,2-;/m1./s1",GUPPESBEIQALOS-ZVGUSBNCSA-N,[Ca++].O[C@H]([C@@H](O)C(O)=O)C(O)=O,-2.6024346943,0.7658434300600208,3,G4,190.164,-2.5033999999999996,33.039199999999994,11.0,4.0,4.0,7.0,3.0,58.0,0.0,0.0,0.0,0.0,115.06,91.44982457511516,0.0,138.66127285260657
A-738,4-tert-butylbenzoic acid,"InChI=1S/C11H14O2/c1-11(2,3)9-6-4-8(5-7-9)10(12)13/h4-7H,1-3H3,(H,12,13)",KDVYCTOWXSLNNI-UHFFFAOYSA-N,CC(C)(C)c1ccc(cc1)C(O)=O,-3.5779623367,1.2010447742208212,3,G4,178.23099999999997,2.6823000000000006,52.10130000000003,13.0,1.0,1.0,2.0,1.0,70.0,1.0,0.0,0.0,1.0,37.3,78.21186954371979,3.0087408289185604,303.8573181770073
A-740,chlorocopper,InChI=1S/ClH.Cu/h1H;/q;+1/p-1,OXBLHERUFWYNTN-UHFFFAOYSA-M,[Cl-].[Cu+],-3.3235329498,0.0,1,G1,98.999,-2.9985,0.0,2.0,0.0,0.0,2.0,0.0,18.0,0.0,0.0,0.0,0.0,0.0,30.117191284673893,0.0,2.0
A-741,molybdenum nickel tetraoxide,InChI=1S/Mo.Ni.4O/q2*+2;4*-1,AXSAYZUZQSGYFU-UHFFFAOYSA-N,[Ni++].[O-][Mo++]([O-])([O-])[O-],-1.6720680623,0.0,1,G1,218.629,-4.761,0.0,6.0,4.0,0.0,6.0,0.0,40.0,0.0,0.0,0.0,0.0,92.24,49.37566403741921,0.0,23.019550008653873
A-742,8-aminonaphthalene-2-sulfonic acid,"InChI=1S/C10H9NO3S/c11-10-3-1-2-7-4-5-8(6-9(7)10)15(12,13)14/h1-6H,11H2,(H,12,13,14)",QEZZCWMQXHXAFG-UHFFFAOYSA-N,Nc1cccc2ccc(cc12)[S](O)(=O)=O,-1.6822793230000002,0.0,1,G1,223.253,1.6687000000000003,58.17500000000002,15.0,3.0,2.0,5.0,1.0,78.0,2.0,0.0,0.0,2.0,80.39,87.0815943582855,2.8146550093014846,619.6001475530923
A-743,"1,1,1,2,2-pentafluoroethane","InChI=1S/C2HF5/c3-1(4)2(5,6)7/h1H",GTLACDSXYULKMZ-UHFFFAOYSA-N,FC(F)C(F)(F)F,-1.4164957907,0.03640411520000009,2,G3,120.02000000000001,1.8137999999999999,12.059000000000001,7.0,0.0,0.0,5.0,0.0,44.0,0.0,0.0,0.0,0.0,0.0,35.93187015685733,3.541196965079901,51.5907190016011
A-744,"2,3-dimethylphenol","InChI=1S/C8H10O/c1-6-4-3-5-8(9)7(6)2/h3-5,9H,1-2H3",QWBBPBRQALCEIZ-UHFFFAOYSA-N,Cc1cccc(O)c1C,-1.4241960776,0.034182640649999874,2,G3,122.16699999999999,2.0090399999999997,37.5808,9.0,1.0,1.0,1.0,0.0,48.0,1.0,0.0,0.0,1.0,20.23,54.955521100486195,3.2478347337367026,195.55766205433733
A-746,5-chloro-7-iodoquinolin-8-ol,"InChI=1S/C9H5ClINO/c10-6-4-7(11)9(13)8-5(6)2-1-3-12-8/h1-4,13H",QCDFBFJGMNKBDO-UHFFFAOYSA-N,Oc1c(I)cc(Cl)c2cccnc12,-1.8222562261000002,0.0,1,G1,305.502,3.1984000000000004,61.134800000000006,13.0,2.0,1.0,4.0,0.0,66.0,2.0,0.0,0.0,2.0,33.120000000000005,93.6920537323,2.9668729339241464,472.3665095200525
A-749,tert-butyl 2-ethylhexaneperoxoate,"InChI=1S/C12H24O3/c1-6-8-9-10(7-2)11(13)14-15-12(3,4)5/h10H,6-9H2,1-5H3",WYKYCHHWIJXDAO-UHFFFAOYSA-N,CCCCC(CC)C(=O)OOC(C)(C)C,-3.6695176909,0.0,1,G1,216.32099999999997,3.4761000000000024,60.236000000000054,15.0,3.0,0.0,3.0,6.0,90.0,0.0,0.0,0.0,0.0,35.53,93.07152216098804,3.9350599417117014,181.79647817569145
A-750,"2,6,6-trimethylbicyclo[3.1.1]heptane-3-carbaldehyde","InChI=1S/C11H18O/c1-7-8(6-12)4-9-5-10(7)11(9,2)3/h6-10H,4-5H2,1-3H3",VUNCLQCPKWLBRY-UHFFFAOYSA-N,CC1C(CC2CC1C2(C)C)C=O,-3.5580403929,0.0,1,G1,166.26399999999998,2.5036000000000005,48.71300000000003,12.0,1.0,0.0,1.0,1.0,68.0,0.0,3.0,3.0,3.0,17.07,74.53853196478093,2.163484667672594,207.0496521822662
A-752,2-methyl-4-phenylbutan-2-ol,"InChI=1S/C11H16O/c1-11(2,12)9-8-10-6-4-3-5-7-10/h3-7,12H,8-9H2,1-2H3",YXVSKJDFNJFXAJ-UHFFFAOYSA-N,CC(C)(O)CCc1ccccc1,-1.5556396769999998,0.0,1,G1,164.24800000000002,2.3901000000000003,51.06080000000004,12.0,1.0,1.0,1.0,3.0,66.0,1.0,0.0,0.0,1.0,20.23,74.05034744367602,2.4419972385383093,220.50947032352076
A-756,4-nitrophenyl acetate,"InChI=1S/C8H7NO4/c1-6(10)13-8-4-2-7(3-5-8)9(11)12/h2-5H,1H3",QAUUDNIGJSLPSX-UHFFFAOYSA-N,CC(=O)Oc1ccc(cc1)[N+]([O-])=O,-2.5992568252,0.02962841259999993,2,G3,181.147,1.5200999999999998,44.405400000000014,13.0,4.0,0.0,5.0,2.0,68.0,1.0,0.0,0.0,1.0,69.44,74.08933040034063,2.809454194164694,330.5021927396972
A-758,1-(1-benzofuran-2-yl)ethan-1-one,"InChI=1S/C10H8O2/c1-7(11)10-6-8-4-2-3-5-9(8)12-10/h2-6H,1H3",YUTFQTAITWWGFH-UHFFFAOYSA-N,CC(=O)c1oc2ccccc2c1,-2.5484883965000003,0.0,1,G1,160.17199999999997,2.6354000000000006,46.21850000000003,12.0,2.0,0.0,2.0,1.0,60.0,2.0,0.0,0.0,2.0,30.21,69.79880324414599,2.6972540609797386,393.0861294011406
A-760,2-amino-6-chloro-4-nitrophenol,"InChI=1S/C6H5ClN2O3.ClH/c7-4-1-3(9(11)12)2-5(8)6(4)10;/h1-2,10H,8H2;1H",HXKQPFKBBNRPEK-UHFFFAOYSA-N,[Cl-].[NH3+]c1cc(cc(Cl)c1O)[N+]([O-])=O,-2.6990298363,0.0,1,G1,225.03099999999998,-2.1687999999999996,42.3193,13.0,3.0,2.0,7.0,1.0,72.0,1.0,0.0,0.0,1.0,91.00999999999999,84.67486277063658,1.4399996774000746e-06,319.64640347552717
A-761,1-[(2-tert-butylcyclohexyl)oxy]butan-2-ol,"InChI=1S/C14H28O2/c1-5-11(15)10-16-13-9-7-6-8-12(13)14(2,3)4/h11-13,15H,5-10H2,1-4H3",GQBVHGLNSHPKPG-UHFFFAOYSA-N,CCC(O)COC1CCCCC1C(C)(C)C,-3.698734262,0.0,1,G1,228.37599999999995,3.378800000000002,67.45080000000006,16.0,2.0,1.0,2.0,4.0,96.0,0.0,1.0,1.0,1.0,29.46,100.38544634315912,2.474073272843526,195.40224730690767
A-770,"menthane, monohydroperoxy derivative","InChI=1S/C10H20O2/c1-7(2)9-5-4-8(3)6-10(9)12-11/h7-11H,4-6H2,1-3H3",OZTWDFWAMMUDHQ-UHFFFAOYSA-N,CC(C)C1CCC(C)CC1OO,-2.5888216416,0.0,1,G1,172.268,2.9368000000000007,48.84480000000003,12.0,2.0,1.0,2.0,2.0,72.0,0.0,1.0,1.0,1.0,29.46,74.85497320131098,2.5011809843720236,133.80026905978025
A-772,"2-methylpropyl 3,5-diamino-4-chlorobenzoate","InChI=1S/C11H15ClN2O2/c1-6(2)5-16-11(15)7-3-8(13)10(12)9(14)4-7/h3-4,6H,5,13-14H2,1-2H3",KHUIRIRTZCOEMK-UHFFFAOYSA-N,CC(C)COC(=O)c1cc(N)c(Cl)c(N)c1,-2.738284824,0.005369099399999966,2,G3,242.70599999999996,2.3171999999999997,65.39730000000002,16.0,4.0,2.0,5.0,3.0,88.0,1.0,0.0,0.0,1.0,78.34,99.51422864193773,2.843280331678351,381.96619044899546
A-773,1-benzoylcyclohexan-1-ol,"InChI=1S/C13H16O2/c14-12(11-7-3-1-4-8-11)13(15)9-5-2-6-10-13/h1,3-4,7-8,15H,2,5-6,9-10H2",QNODIIQQMGDSEF-UHFFFAOYSA-N,OC1(CCCCC1)C(=O)c2ccccc2,-2.6647801935,0.0,1,G1,204.26900000000003,2.5645000000000007,58.80730000000004,15.0,2.0,1.0,2.0,2.0,80.0,1.0,1.0,1.0,2.0,37.3,89.9359226189838,2.197389223945927,336.81340252969113
A-775,benzylhydrazine dihydrochloride,"InChI=1S/C7H10N2.2ClH/c8-9-6-7-4-2-1-3-5-7;;/h1-5,9H,6,8H2;2*1H",MSJHOJKVMMEMNX-UHFFFAOYSA-N,[H+].[H+].[Cl-].[Cl-].NNCc1ccccc1,-1.6467890106,0.0,1,G1,195.09300000000005,-5.117099999999997,39.69310000000002,11.0,2.0,2.0,4.0,2.0,64.0,1.0,0.0,0.0,1.0,38.05,81.9320173788392,-1.0124999593593768e-07,175.40332763407105
A-777,2-ethoxy-3-[[4-[2-(2H-tetrazol-5-yl)phenyl]phenyl]methyl]benzimidazole-4-carboxylic acid,"InChI=1S/C24H20N6O3/c1-2-33-24-25-20-9-5-8-19(23(31)32)21(20)30(24)14-15-10-12-16(13-11-15)17-6-3-4-7-18(17)22-26-28-29-27-22/h3-13H,2,14H2,1H3,(H,31,32)(H,26,27,28,29)",HTQMVQVXFRQIKW-UHFFFAOYSA-N,CCOc1nc2cccc(C(O)=O)c2n1Cc3ccc(cc3)c4ccccc4c5n[nH]nn5,-6.4977813968,0.0,1,G1,440.4630000000001,4.028600000000002,122.013,33.0,7.0,2.0,9.0,7.0,164.0,5.0,0.0,0.0,5.0,118.81,188.2256647663815,1.5251377806690443,1424.913779430258
A-779,"2,4,6-trichloro-1,3,5-triazine",InChI=1S/C3Cl3N3/c4-1-7-2(5)9-3(6)8-1,MGNCLNQXLYJVJD-UHFFFAOYSA-N,Clc1nc(Cl)nc(Cl)n1,-2.6223388564,0.057267988150000004,2,G3,184.413,1.8318000000000003,34.857,9.0,3.0,0.0,6.0,0.0,48.0,1.0,0.0,0.0,1.0,38.67,66.00014574298152,3.165670309917317,175.06517765499825
A-780,2-tert-butyl-6-(3-tert-butyl-2-hydroxy-5-methoxyphenyl)-4-methoxyphenol,"InChI=1S/C22H30O4/c1-21(2,3)17-11-13(25-7)9-15(19(17)23)16-10-14(26-8)12-18(20(16)24)22(4,5)6/h9-12,23-24H,1-8H3",CBYWHFTZNVZQHV-UHFFFAOYSA-N,COc1cc(c(O)c(c1)C(C)(C)C)c2cc(OC)cc(c2O)C(C)(C)C,-6.7763112575,0.0,1,G1,358.4780000000001,5.377000000000006,105.71160000000006,26.0,4.0,2.0,4.0,3.0,142.0,2.0,0.0,0.0,2.0,58.92,155.95347643293283,2.877180826125157,738.8577898520662
A-781,Tazobactam,"InChI=1S/C10H12N4O5S/c1-10(5-13-3-2-11-12-13)8(9(16)17)14-6(15)4-7(14)20(10,18)19/h2-3,7-8H,4-5H2,1H3,(H,16,17)/t7-,8+,10+/m1/s1",LPQZKKCYTLCDGQ-WEDXCCLWSA-N,C[C@]1(Cn2ccnn2)[C@@H](N3[C@@H](CC3=O)[S]1(=O)=O)C(O)=O,-1.8384616763,0.0,1,G1,300.296,-1.5231999999999979,64.02160000000002,20.0,7.0,1.0,10.0,3.0,108.0,1.0,2.0,2.0,3.0,122.46000000000001,113.63712273819701,2.097498683882936,684.5109353405426
A-784,N-methyl-N-phenylformamide,"InChI=1S/C8H9NO/c1-9(7-10)8-5-3-2-4-6-8/h2-7H,1H3",JIKUXBYRTXDNIY-UHFFFAOYSA-N,CN(C=O)c1ccccc1,-1.4947809467,0.0,1,G1,135.16599999999997,1.2792,40.90900000000003,10.0,1.0,0.0,2.0,2.0,52.0,1.0,0.0,0.0,1.0,20.310000000000002,60.082643118537305,2.8420150159808886,207.75739299455702