ID,Name,InChI,InChIKey,SMILES,Solubility,SD,Ocurrences,Group,MolWt,MolLogP,MolMR,HeavyAtomCount,NumHAcceptors,NumHDonors,NumHeteroatoms,NumRotatableBonds,NumValenceElectrons,NumAromaticRings,NumSaturatedRings,NumAliphaticRings,RingCount,TPSA,LabuteASA,BalabanJ,BertzCT
A-884,"2-ethoxy-2,6,6-trimethyl-9-methylidenebicyclo[3.3.1]nonane","InChI=1S/C15H26O/c1-6-16-15(5)10-8-12-11(2)13(15)7-9-14(12,3)4/h12-13H,2,6-10H2,1,3-5H3",LUNAXRIJWWBQTE-UHFFFAOYSA-N,CCOC1(C)CCC2C(=C)C1CCC2(C)C,-4.7342962454,0.0,1,G1,222.37199999999996,4.184000000000004,68.40000000000005,16.0,1.0,0.0,1.0,2.0,92.0,0.0,2.0,2.0,2.0,9.23,100.26072051964621,2.2262834953579964,291.8100768023833
A-885,"N,N-diethyl[(diethylcarbamothioyl)disulfanyl]carbothioamide","InChI=1S/C10H20N2S4/c1-5-11(6-2)9(13)15-16-10(14)12(7-3)8-4/h5-8H2,1-4H3",AUZONCFQVSMFAP-UHFFFAOYSA-N,CCN(CC)C(=S)SSC(=S)N(CC)CC,-4.8603775493,0.9301887746499999,2,G2,296.5520000000001,3.6212000000000026,86.22000000000004,16.0,4.0,0.0,6.0,4.0,94.0,0.0,0.0,0.0,0.0,6.48,117.90714002929566,4.041784405967148,200.8589190857419
A-886,"6-amino-2-(2,4-dimethylphenyl)-1H-benzo[de]isoquinoline-1,3(2H)-dione","InChI=1S/C20H16N2O2/c1-11-6-9-17(12(2)10-11)22-19(23)14-5-3-4-13-16(21)8-7-15(18(13)14)20(22)24/h3-10H,21H2,1-2H3",FQLZTPSAVDHUKS-UHFFFAOYSA-N,Cc1ccc(N2C(=O)c3cccc4c(N)ccc(C2=O)c34)c(C)c1,-4.8916555333,0.0,1,G1,316.3600000000001,3.8394400000000024,95.41640000000004,24.0,3.0,1.0,4.0,1.0,118.0,3.0,0.0,1.0,4.0,63.4,139.046867728657,2.005101312004899,1014.9834501141484
A-887,"(4-tert-butyl-2,6-dimethylphenyl)acetonitrile","InChI=1S/C14H19N/c1-10-8-12(14(3,4)5)9-11(2)13(10)6-7-15/h8-9H,6H2,1-5H3",ZUXNULGHCOXCFL-UHFFFAOYSA-N,Cc1cc(cc(C)c1CC#N)C(C)(C)C,-4.7018118294999995,0.0,1,G1,201.313,3.6670200000000026,63.93300000000004,15.0,1.0,0.0,1.0,1.0,80.0,1.0,0.0,0.0,1.0,23.79,92.74351971613855,3.2692304702845068,379.3224814317526
A-888,"3,9-bis[2,4-bis(2-phenylpropan-2-yl)phenoxy]-2,4,8,10-tetraoxa-3,9-diphosphaspiro[5.5]undecane","InChI=1S/C53H58O6P2/c1-49(2,39-21-13-9-14-22-39)43-29-31-47(45(33-43)51(5,6)41-25-17-11-18-26-41)58-60-54-35-53(36-55-60)37-56-61(57-38-53)59-48-32-30-44(50(3,4)40-23-15-10-16-24-40)34-46(48)52(7,8)42-27-19-12-20-28-42/h9-34H,35-38H2,1-8H3/t53?,60-,61-",WBWXVCMXGYSMQA-DISNZCRASA-N,CC(C)(c1ccccc1)c2ccc(O[P@]3OC[C@]4(CO3)CO[P@](OC4)Oc5ccc(cc5C(C)(C)c6ccccc6)C(C)(C)c7ccccc7)c(c2)C(C)(C)c8ccccc8,-7.2319734263,0.0,1,G1,852.989,13.981799999999971,248.50099999999912,61.0,6.0,0.0,8.0,12.0,316.0,6.0,2.0,2.0,8.0,55.38000000000001,365.10989147505194,0.9708241460082828,2210.512973389878
A-889,Naphthalimide,"InChI=1S/C12H7NO2/c14-11-8-5-1-3-7-4-2-6-9(10(7)8)12(15)13-11/h1-6H,(H,13,14,15)",XJHABGPPCLHLLV-UHFFFAOYSA-N,O=C1NC(=O)c2cccc3cccc1c23,-4.6928315029,0.0,1,G1,197.19299999999998,1.7234,55.74470000000002,15.0,2.0,1.0,3.0,0.0,72.0,2.0,0.0,1.0,3.0,46.17,85.71002711019172,2.5596903090526832,552.8436506031799
A-890,dibutylstannanone,"InChI=1S/2C4H9.O.Sn/c2*1-3-4-2;;/h2*1,3-4H2,2H3;;",JGFBRKRYDCGYKD-UHFFFAOYSA-N,CCCC[Sn](=O)CCCC,-4.7940381830000005,0.0977599054499998,2,G3,248.94199999999995,3.0086000000000013,45.87050000000002,10.0,1.0,0.0,2.0,6.0,60.0,0.0,0.0,0.0,0.0,17.07,71.3240335475123,3.0863484262353005,81.25838096618139
A-891,dibutyltin bis(2-ethylhexanoate),"InChI=1S/2C8H16O2.2C4H9.Sn/c2*1-3-5-6-7(4-2)8(9)10;2*1-3-4-2;/h2*7H,3-6H2,1-2H3,(H,9,10);2*1,3-4H2,2H3;/q;;;;+2/p-2",GPDWNEFHGANACG-UHFFFAOYSA-L,CCCC[Sn++]CCCC.CCCCC(CC)C([O-])=O.CCCCC(CC)C([O-])=O,-5.1134043257,1.2720340221500002,2,G2,519.3550000000005,5.032800000000004,121.81000000000012,29.0,4.0,0.0,5.0,16.0,172.0,0.0,0.0,0.0,0.0,80.25999999999999,191.4010957449647,-3.503157850291247e-07,315.7723607190498
A-893,octahydro-2H-1-benzopyran-2-one,"InChI=1S/C9H14O2/c10-9-6-5-7-3-1-2-4-8(7)11-9/h7-8H,1-6H2",MSFLYJIWLHSQLG-UHFFFAOYSA-N,O=C1CCC2CCCCC2O1,-0.5865603256,0.0,1,G1,154.209,1.8821999999999999,41.07200000000001,11.0,2.0,0.0,2.0,0.0,62.0,0.0,2.0,2.0,2.0,26.3,66.92219296549462,1.9825679984116522,164.94566830288574
A-895,methyl 4-methylbenzoate,"InChI=1S/C9H10O2/c1-7-3-5-8(6-4-7)9(10)11-2/h3-6H,1-2H3",QSSJZLPUHJDYKF-UHFFFAOYSA-N,COC(=O)c1ccc(C)cc1,-2.5767203524,0.022433310431593998,3,G5,150.177,1.78162,42.518500000000024,11.0,2.0,0.0,2.0,1.0,58.0,1.0,0.0,0.0,1.0,26.3,65.80129679223742,2.8953480359887567,248.77017257091032
A-896,"2-benzyl-4,4,6-trimethyl-1,3-dioxane","InChI=1S/C14H20O2/c1-11-10-14(2,3)16-13(15-11)9-12-7-5-4-6-8-12/h4-8,11,13H,9-10H2,1-3H3",KSEFBQCEGMTNPD-UHFFFAOYSA-N,CC1CC(C)(C)OC(Cc2ccccc2)O1,-2.7446854432,0.0,1,G1,220.312,3.159200000000002,64.26200000000004,16.0,2.0,0.0,2.0,2.0,88.0,1.0,1.0,1.0,2.0,18.46,97.57219934015437,1.9992235714261766,331.84839499722
A-898,"benzene-1,2-diamine","InChI=1S/C6H8N2/c7-5-3-1-2-4-6(5)8/h1-4H,7-8H2",GEYOCULIXLDCMW-UHFFFAOYSA-N,Nc1ccccc1N,-0.43960987869999996,0.05163328532005855,3,G5,108.144,0.851,35.2668,8.0,2.0,2.0,2.0,0.0,42.0,1.0,0.0,0.0,1.0,52.04,48.11118451352239,3.134861511345448,162.63833891467198
A-901,"1,2-benzisothiazol-3(2H)-one 1,1-dioxide","InChI=1S/C7H5NO3S/c9-7-5-3-1-2-4-6(5)12(10,11)8-7/h1-4H,(H,8,9)",CVHZOJJKTDOEJC-UHFFFAOYSA-N,O=C1N[S](=O)(=O)c2ccccc12,-1.6718324141,0.059541371435493796,6,G5,183.18800000000002,0.11869999999999997,41.094000000000015,12.0,3.0,1.0,5.0,0.0,62.0,1.0,0.0,1.0,2.0,63.24,69.26267425643123,2.8283976971285636,449.4742221869951
A-904,sodium 4-amino-3-methylbenzene-1-sulfonate,"InChI=1S/C7H9NO3S.Na/c1-5-4-6(12(9,10)11)2-3-7(5)8;/h2-4H,8H2,1H3,(H,9,10,11);/q;+1/p-1",RVSNUNNCRYLEEM-UHFFFAOYSA-M,[Na+].Cc1cc(ccc1N)[S]([O-])(=O)=O,-1.7295012251,0.0,1,G1,209.20199999999997,-2.5146799999999985,43.554600000000015,13.0,4.0,1.0,6.0,1.0,66.0,1.0,0.0,0.0,1.0,83.22,99.17827156365884,1.4399996808000729e-06,402.19872367178954
A-906,"3,7-dimethyloctanenitrile","InChI=1S/C10H19N/c1-9(2)5-4-6-10(3)7-8-11/h9-10H,4-7H2,1-3H3",SAPMLSXAXRULJB-UHFFFAOYSA-N,CC(C)CCCC(C)CC#N,-3.5877591379,0.0,1,G1,153.269,3.3624800000000024,48.08300000000003,11.0,1.0,0.0,1.0,5.0,64.0,0.0,0.0,0.0,0.0,23.79,70.41630973886774,3.183499102135699,121.3246918518097
A-907,calcium molybdate,InChI=1S/Ca.Mo.4O/q+2;;;;2*-1,BIOOACNPATUQFW-UHFFFAOYSA-N,[Ca++].[O-][Mo]([O-])(=O)=O,-3.7036943449,0.1659203575499999,2,G3,200.01399999999998,-2.9989,7.126999999999999,6.0,4.0,0.0,6.0,0.0,32.0,0.0,0.0,0.0,0.0,80.25999999999999,67.88673505608293,0.0,90.7164928725825
A-908,1-[3-(2-oxoazepane-1-carbonyl)benzoyl]azepan-2-one,"InChI=1S/C20H24N2O4/c23-17-10-3-1-5-12-21(17)19(25)15-8-7-9-16(14-15)20(26)22-13-6-2-4-11-18(22)24/h7-9,14H,1-6,10-13H2",HXZRLUTUNSQNCG-UHFFFAOYSA-N,O=C1CCCCCN1C(=O)c2cccc(c2)C(=O)N3CCCCCC3=O,-3.9583461947000003,0.0,1,G1,356.42200000000025,2.7722000000000016,95.46500000000006,26.0,4.0,0.0,6.0,2.0,138.0,1.0,2.0,2.0,3.0,74.76,152.69468615457285,1.8053231337768807,671.026295724208
A-909,"6,10-dimethylundeca-5,9-dien-2-one","InChI=1S/C13H22O/c1-11(2)7-5-8-12(3)9-6-10-13(4)14/h7,9H,5-6,8,10H2,1-4H3/b12-9+",HNZUNIKWNYHEJJ-FMIVXFBMSA-N,CC(C)=CCC\C(C)=C\CCC(C)=O,-3.6974484249,0.32164394924999984,2,G3,194.31799999999996,4.048300000000003,62.337000000000046,14.0,1.0,0.0,1.0,6.0,80.0,0.0,0.0,0.0,0.0,17.07,87.90087243626411,3.670448527133007,229.62011791630908
A-914,prop-2-en-1-yl hexanoate,"InChI=1S/C9H16O2/c1-3-5-6-7-9(10)11-8-4-2/h4H,2-3,5-8H2,1H3",RCSBILYQLVXLJG-UHFFFAOYSA-N,CCCCCC(=O)OCC=C,-2.6105517594,0.15546313973755996,3,G5,156.22499999999997,2.2959000000000005,45.298000000000016,11.0,2.0,0.0,2.0,6.0,64.0,0.0,0.0,0.0,0.0,26.3,68.2442522403688,3.1510083529427266,118.731140660285
A-916,"sodium 2-amino-4,6-dinitrophenolate","InChI=1S/C6H5N3O5.Na/c7-4-1-3(8(11)12)2-5(6(4)10)9(13)14;/h1-2,10H,7H2;/q;+1/p-1",UENNEPPWFZYINW-UHFFFAOYSA-M,[Na+].Nc1cc(cc(c1[O-])[N+]([O-])=O)[N+]([O-])=O,-1.7648130029,0.0,1,G1,221.10399999999996,-2.8371999999999993,43.609199999999994,15.0,6.0,1.0,9.0,2.0,74.0,1.0,0.0,0.0,1.0,135.36,105.28487863641723,1.9599994213335105e-06,421.4735477435591
A-917,4-chloro-1-(4-fluorophenyl)butan-1-one,"InChI=1S/C10H10ClFO/c11-7-1-2-10(13)8-3-5-9(12)6-4-8/h3-6H,1-2,7H2",HXAOUYGZEOZTJO-UHFFFAOYSA-N,Fc1ccc(cc1)C(=O)CCCCl,-2.7226339225,0.0,1,G1,200.63999999999996,3.027400000000002,50.68450000000002,13.0,1.0,0.0,3.0,4.0,70.0,1.0,0.0,0.0,1.0,17.07,81.52149530693507,2.6111712506381335,281.48114931490306
A-922,tri(propan-2-yl)silyl prop-2-enoate,"InChI=1S/C12H24O2Si/c1-8-12(13)14-15(9(2)3,10(4)5)11(6)7/h8-11H,1H2,2-7H3",PQSIXYSSKXAOFE-UHFFFAOYSA-N,CC(C)[Si](OC(=O)C=C)(C(C)C)C(C)C,-4.9437379631,0.0,1,G1,228.40799999999996,3.8911000000000033,67.33700000000005,15.0,2.0,0.0,3.0,5.0,88.0,0.0,0.0,0.0,0.0,26.3,94.84339435784396,5.132522351816899,210.0021809033928
A-924,diisopropyl succinate,"InChI=1S/C10H18O4/c1-7(2)13-9(11)5-6-10(12)14-8(3)4/h7-8H,5-6H2,1-4H3",YPLYFEUBZLLLIY-UHFFFAOYSA-N,CC(C)OC(=O)CCC(=O)OC(C)C,-1.7293168462000001,0.0,1,G1,202.25,1.6698,51.69000000000004,14.0,4.0,0.0,4.0,5.0,82.0,0.0,0.0,0.0,0.0,52.60000000000001,84.57386471650031,3.613952245988637,174.29867917997393
A-926,strontium(2+) ion 3-hydroxy-4-[(E)-2-(4-methyl-2-sulfonatophenyl)diazen-1-yl]naphthalene-2-carboxylate,"InChI=1S/C18H14N2O6S.Sr/c1-10-6-7-14(15(8-10)27(24,25)26)19-20-16-12-5-3-2-4-11(12)9-13(17(16)21)18(22)23;/h2-9,19H,1H3,(H,22,23)(H,24,25,26);/q;+2/p-2/b20-16-;",XUCZYOLXABAZRV-LRZQPWDCSA-L,[Sr++].Cc1ccc(N\N=C\2C(=O)C(=Cc3ccccc23)C([O-])=O)c(c1)[S]([O-])(=O)=O,-4.1057301532,0.0,1,G1,471.98900000000026,0.0505199999999999,99.48890000000002,28.0,8.0,1.0,10.0,4.0,138.0,2.0,0.0,1.0,3.0,138.79,197.5319462630467,2.8033304522669224e-06,1138.5148745463796
A-927,"8-[(4-aminophenyl)diazenyl]-7-hydroxy-N,N,N-trimethylnaphthalen-2-aminium chloride","InChI=1S/C19H20N4O.ClH/c1-23(2,3)16-10-4-13-5-11-18(24)19(17(13)12-16)22-21-15-8-6-14(20)7-9-15;/h4-12H,1-3H3,(H2-,20,21,22,24);1H",UXEAWNJALIUYRH-UHFFFAOYSA-N,[Cl-].C[N+](C)(C)c1ccc2ccc(O)c(N=Nc3ccc(N)cc3)c2c1,-1.9807853884,0.0,1,G1,356.8570000000001,1.7437000000000007,100.20920000000002,25.0,4.0,2.0,6.0,3.0,130.0,3.0,0.0,0.0,3.0,70.97,152.96878890353193,2.2533314616238387e-06,915.0956774452019
A-929,trifluoroacetamide,"InChI=1S/C2H2F3NO/c3-2(4,5)1(6)7/h(H2,6,7)",NRKYWOKHZRQRJR-UHFFFAOYSA-N,NC(=O)C(F)(F)F,-1.4850227408,0.0,1,G1,113.03800000000001,0.03400000000000014,15.249400000000001,7.0,1.0,1.0,5.0,0.0,42.0,0.0,0.0,0.0,0.0,43.09,37.10221214806134,3.7911184170869663,85.42592196522058
A-930,4-(2-methylbutan-2-yl)cyclohexan-1-one,"InChI=1S/C11H20O/c1-4-11(2,3)9-5-7-10(12)8-6-9/h9H,4-8H2,1-3H3",DCSKAMGZSIRJAQ-UHFFFAOYSA-N,CCC(C)(C)C1CCC(=O)CC1,-2.6568927779,0.0,1,G1,168.27999999999994,3.1819000000000015,51.037000000000035,12.0,1.0,0.0,1.0,2.0,70.0,0.0,1.0,1.0,1.0,17.07,75.54436311831017,2.4883693892245673,159.84292599913812
A-932,4-methanesulfonyl-1-methyl-2-nitrobenzene,"InChI=1S/C8H9NO4S/c1-6-3-4-7(14(2,12)13)5-8(6)9(10)11/h3-5H,1-2H3",OXBDLEXAVKAJFD-UHFFFAOYSA-N,Cc1ccc(cc1[N+]([O-])=O)[S](C)(=O)=O,-2.7647010816,0.0,1,G1,215.23,1.30672,50.943200000000026,14.0,4.0,0.0,6.0,2.0,76.0,1.0,0.0,0.0,1.0,77.28,81.43966145257656,3.4165333761642867,478.1146884592122
A-935,methyl non-2-ynoate,"InChI=1S/C10H16O2/c1-3-4-5-6-7-8-9-10(11)12-2/h3-7H2,1-2H3",NTLJTUMJJWVCTL-UHFFFAOYSA-N,CCCCCCC#CC(=O)OC,-3.6518876662,0.0,1,G1,168.236,2.1332000000000004,48.55100000000003,12.0,2.0,0.0,2.0,4.0,68.0,0.0,0.0,0.0,0.0,26.3,74.29802277880893,3.2689731533358644,174.01293830999776
A-936,decan-1-ol,"InChI=1S/C10H22O/c1-2-3-4-5-6-7-8-9-10-11/h11H,2-10H2,1H3",MWKFXSUHUHTGQN-UHFFFAOYSA-N,CCCCCCCCCCO,-3.6312380364999997,0.4066813050584317,4,G5,158.285,3.119400000000002,49.69580000000003,11.0,1.0,1.0,1.0,8.0,68.0,0.0,0.0,0.0,0.0,20.23,70.81796380959506,2.6909155266923976,53.89311688209828
A-939,triphenylphosphine oxide,"InChI=1S/C18H15OP/c19-20(16-10-4-1-5-11-16,17-12-6-2-7-13-17)18-14-8-3-9-15-18/h1-15H",FIQMHBFVRAXMOP-UHFFFAOYSA-N,O=[P](c1ccccc1)(c2ccccc2)c3ccccc3,-2.8774727951999997,0.0,1,G1,278.291,3.3260000000000014,85.83450000000005,20.0,1.0,0.0,2.0,3.0,98.0,3.0,0.0,0.0,3.0,17.07,118.83519143171844,2.272149038700854,617.7209195571577
A-940,"2-chloro-1,4-dimethoxybenzene","InChI=1S/C8H9ClO2/c1-10-6-3-4-8(11-2)7(9)5-6/h3-5H,1-2H3",QMXZSRVFIWACJH-UHFFFAOYSA-N,COc1ccc(OC)c(Cl)c1,-2.6724024043,0.0,1,G1,172.611,2.3571999999999997,44.55600000000002,11.0,2.0,0.0,3.0,2.0,60.0,1.0,0.0,0.0,1.0,18.46,70.69164403418561,2.9929629518415926,247.8474159248874
A-944,2-(2-naphthyloxy)ethanol,"InChI=1S/C12H12O2/c13-7-8-14-12-6-5-10-3-1-2-4-11(10)9-12/h1-6,9,13H,7-8H2",BQPBZDSDFCDSAO-UHFFFAOYSA-N,OCCOc1ccc2ccccc2c1,-2.7142946902,0.0,1,G1,188.226,2.2108999999999996,56.52880000000003,14.0,2.0,1.0,2.0,3.0,72.0,2.0,0.0,0.0,2.0,29.46,82.75073086172829,2.3152099416715273,423.34617259576413
A-950,butoxybenzene,"InChI=1S/C10H14O/c1-2-3-9-11-10-7-5-4-6-8-10/h4-8H,2-3,9H2,1H3",YFNONBGXNFCTMM-UHFFFAOYSA-N,CCCCOc1ccccc1,-3.6132495632999997,0.0,1,G1,150.22099999999998,2.8655000000000017,46.845000000000034,11.0,1.0,0.0,1.0,4.0,60.0,1.0,0.0,0.0,1.0,9.23,68.00471680659028,2.2758012873675093,181.32408233692004
A-951,2-[2-(benzoyloxy)ethoxy]ethyl benzoate,"InChI=1S/C18H18O5/c19-17(15-7-3-1-4-8-15)22-13-11-21-12-14-23-18(20)16-9-5-2-6-10-16/h1-10H,11-14H2",NXQMCAOPTPLPRL-UHFFFAOYSA-N,O=C(OCCOCCOC(=O)c1ccccc1)c2ccccc2,-3.9374888789999996,0.018444614380237992,4,G5,314.33700000000005,2.7170000000000005,84.26800000000004,23.0,5.0,0.0,5.0,8.0,120.0,2.0,0.0,0.0,2.0,61.830000000000005,134.34182990054887,1.529201718235942,554.3237759453147
A-953,"(Z)-N-9-octadecenylpropane-1,3-diamine","InChI=1S/C21H44N2/c1-2-3-4-5-6-7-8-9-10-11-12-13-14-15-16-17-20-23-21-18-19-22/h9-10,23H,2-8,11-22H2,1H3/b10-9-",TUFJPPAQOXUHRI-KTKRTIGZSA-N,CCCCCCCC\C=C/CCCCCCCCNCCCN,-3.9550420009,0.0,1,G1,324.59700000000004,5.962300000000004,105.99310000000008,23.0,2.0,2.0,2.0,19.0,138.0,0.0,0.0,0.0,0.0,38.05,146.23824316419825,3.0230693397579023,225.88145914557288
A-954,"1,2,4-trichlorobenzene",InChI=1S/C6H3Cl3/c7-4-1-2-5(8)6(9)3-4/h1-3H,PBKONEOXTCPAFI-UHFFFAOYSA-N,Clc1ccc(Cl)c(Cl)c1,-3.7024520783,0.12404155583351947,8,G5,181.449,3.6468000000000007,41.47200000000001,9.0,0.0,0.0,3.0,0.0,48.0,1.0,0.0,0.0,1.0,0.0,68.34120180014197,3.1716780304409156,219.54299954784685
A-959,"[3-methyl-4-(2,2,2-trifluoroethoxy)pyridin-2-yl]methanol","InChI=1S/C9H10F3NO2/c1-6-7(4-14)13-3-2-8(6)15-5-9(10,11)12/h2-3,14H,4-5H2,1H3",GNILTGRCVCMPFJ-UHFFFAOYSA-N,Cc1c(CO)nccc1OCC(F)(F)F,-1.7920737105000002,0.0,1,G1,221.17799999999994,1.82342,46.44680000000002,15.0,3.0,1.0,6.0,3.0,84.0,1.0,0.0,0.0,1.0,42.35000000000001,84.51520474851151,2.7753164010557625,338.6196085630034
A-960,methoxymethane,InChI=1S/C2H6O/c1-3-2/h1-2H3,LCGLNKUTAGEVQW-UHFFFAOYSA-N,COC,0.8843659201,0.44440493135000003,2,G3,46.069,0.26260000000000006,12.933000000000002,3.0,1.0,0.0,1.0,0.0,20.0,0.0,0.0,0.0,0.0,9.23,20.217738371733038,1.6329931618554523,2.7548875021634682
A-961,"(2E)-3-(3,4,5-trimethoxyphenyl)prop-2-enoic acid","InChI=1S/C12H14O5/c1-15-9-6-8(4-5-11(13)14)7-10(16-2)12(9)17-3/h4-7H,1-3H3,(H,13,14)/b5-4+",YTFVRYKNXDADBI-SNAWJCMRSA-N,COc1cc(\C=C\C(O)=O)cc(OC)c1OC,-2.8304701939999997,0.0,1,G1,238.23899999999995,1.8101999999999998,62.76780000000003,17.0,4.0,1.0,5.0,5.0,92.0,1.0,0.0,0.0,1.0,64.99000000000001,99.22784431445278,3.2179156762590817,411.51728308500077
A-962,barium(2+) ion diphosphinate,"InChI=1S/Ba.2HO2P/c;2*1-3-2/h;2*(H,1,2)/q+2;;/p-2",OWESJVSXFRLVFC-UHFFFAOYSA-L,[Ba++].[O-]P=O.[O-]P=O,0.1236633717,0.0,1,G1,263.272,-1.274,20.967,7.0,4.0,0.0,7.0,0.0,36.0,0.0,0.0,0.0,0.0,80.25999999999999,83.95770812813484,-3.999999981250001e-08,30.671034463057104
A-967,"1,4-dibromobutane",InChI=1S/C4H8Br2/c5-3-1-2-4-6/h1-4H2,ULTHEAFYOOPTTB-UHFFFAOYSA-N,BrCCCCBr,-2.7902167817000003,0.0,1,G1,215.916,2.556400000000001,36.822,6.0,0.0,0.0,2.0,3.0,38.0,0.0,0.0,0.0,0.0,0.0,55.569172582302095,2.3390923149762908,17.509775004326936
A-969,"1,2,3,4-tetrahydronaphthalene","InChI=1S/C10H12/c1-2-6-10-8-4-3-7-9(10)5-1/h1-2,5-6H,3-4,7-8H2",CXWXQJXEFPUFDZ-UHFFFAOYSA-N,C1CCc2ccccc2C1,-3.5673681389,0.35206976423835973,5,G5,132.20599999999996,2.5654000000000003,43.084000000000024,10.0,0.0,0.0,0.0,0.0,52.0,1.0,0.0,1.0,2.0,0.0,61.88534042355416,2.414292094177304,200.23484899951498
A-971,"1,6-dibutyl hexanedioate","InChI=1S/C14H26O4/c1-3-5-11-17-13(15)9-7-8-10-14(16)18-12-6-4-2/h3-12H2,1-2H3",XTJFFFGAUHQWII-UHFFFAOYSA-N,CCCCOC(=O)CCCCC(=O)OCCCC,-3.8681538696,0.0,1,G1,258.3579999999999,3.2334000000000023,70.20200000000006,18.0,4.0,0.0,4.0,11.0,106.0,0.0,0.0,0.0,0.0,52.60000000000001,110.03363317408676,3.3233194240262938,201.83388115177073
A-972,"ethyl phenyl(2,4,6-trimethylbenzoyl)phosphinate","InChI=1S/C18H21O3P/c1-5-21-22(20,16-9-7-6-8-10-16)18(19)17-14(3)11-13(2)12-15(17)4/h6-12H,5H2,1-4H3",ZMDDERVSCYEKPQ-UHFFFAOYSA-N,CCO[P](=O)(C(=O)c1c(C)cc(C)cc1C)c2ccccc2,-3.9560819473000004,0.0,1,G1,316.337,4.392160000000003,90.29200000000004,22.0,3.0,0.0,4.0,5.0,116.0,2.0,0.0,0.0,2.0,43.370000000000005,131.32948749971192,2.6010201085760345,712.2475302284902
A-973,2-tert-butyl-5-methylphenol,"InChI=1S/C11H16O/c1-8-5-6-9(10(12)7-8)11(2,3)4/h5-7,12H,1-4H3",XOUQAVYLRNOXDO-UHFFFAOYSA-N,Cc1ccc(c(O)c1)C(C)(C)C,-2.672674663,0.0,1,G1,164.248,2.998120000000001,51.54380000000004,12.0,1.0,1.0,1.0,0.0,66.0,1.0,0.0,0.0,1.0,20.23,74.050347443676,3.189211511901671,281.54585362509573
A-974,dimethyl 2-nitroterephthalate,"InChI=1S/C10H9NO6/c1-16-9(12)6-3-4-7(10(13)17-2)8(5-6)11(14)15/h3-5H,1-2H3",PAYWCKGMOYQZAW-UHFFFAOYSA-N,COC(=O)c1ccc(C(=O)OC)c(c1)[N+]([O-])=O,-2.8359048818,0.0,1,G1,239.18299999999996,1.168,55.77540000000001,17.0,6.0,0.0,7.0,3.0,90.0,1.0,0.0,0.0,1.0,95.74000000000001,96.09428195868448,3.3153231565482364,481.68450876062195
A-975,Cobaltous acetate,"InChI=1S/2C2H4O2.Co/c2*1-2(3)4;/h2*1H3,(H,3,4);/q;;+2/p-2",QAHREYKOYSIQPH-UHFFFAOYSA-L,[Co++].CC([O-])=O.CC([O-])=O,0.2936043702,0.007336670399999995,2,G3,177.021,-2.490099999999999,21.36199999999999,9.0,4.0,0.0,5.0,0.0,55.0,0.0,0.0,0.0,0.0,80.25999999999999,63.0714537104907,-7.199999951999999e-08,70.56842503028855
A-976,6-(prop-2-enoyloxy)hexyl prop-2-enoate,"InChI=1S/C12H18O4/c1-3-11(13)15-9-7-5-6-8-10-16-12(14)4-2/h3-4H,1-2,5-10H2",FIHBHSQYSYVZQE-UHFFFAOYSA-N,C=CC(=O)OCCCCCCOC(=O)C=C,-2.8193366955,0.010504190350000053,2,G3,226.27199999999996,2.0052,60.78000000000004,16.0,4.0,0.0,4.0,9.0,90.0,0.0,0.0,0.0,0.0,52.6,95.92454288092505,3.1530770852631704,219.40331533468293
A-978,"N,N-dimethyldecanamide","InChI=1S/C12H25NO/c1-4-5-6-7-8-9-10-11-12(14)13(2)3/h4-11H2,1-3H3",HNXNKTMIVROLTK-UHFFFAOYSA-N,CCCCCCCCCC(=O)N(C)C,-2.7681111795,0.0,1,G1,199.338,3.215300000000002,61.30400000000005,14.0,1.0,0.0,2.0,8.0,84.0,0.0,0.0,0.0,0.0,20.310000000000002,88.67497005643939,3.0958455805317366,143.25715550266415
A-982,4-[(E)-2-phenyldiazen-1-yl]aniline,"InChI=1S/C12H11N3/c13-10-6-8-12(9-7-10)15-14-11-4-2-1-3-5-11/h1-9H,13H2",QPQKUYVSJWQSDY-UHFFFAOYSA-N,Nc1ccc(cc1)N=Nc2ccccc2,-3.7597030757,0.2801667191506911,3,G5,197.24100000000004,3.6842000000000015,61.47240000000003,15.0,3.0,1.0,3.0,2.0,74.0,2.0,0.0,0.0,2.0,50.739999999999995,88.2751658670628,2.1529892819390977,446.0532648827137
A-986,"(2,2,3-trimethylcyclopent-3-en-1-yl)acetonitrile","InChI=1S/C10H15N/c1-8-4-5-9(6-7-11)10(8,2)3/h4,9H,5-6H2,1-3H3",YYJOTFQPYNOYAB-UHFFFAOYSA-N,CC1=CCC(CC#N)C1(C)C,-2.6475372328,0.0,1,G1,149.237,2.8924800000000017,45.87500000000003,11.0,1.0,0.0,1.0,1.0,60.0,0.0,0.0,1.0,1.0,23.79,68.72087555315426,2.71540649332552,217.51750134054595
A-988,2-tert-butyl-4-methylphenol,"InChI=1S/C11H16O/c1-8-5-6-10(12)9(7-8)11(2,3)4/h5-7,12H,1-4H3",IKEHOXWJQXIQAG-UHFFFAOYSA-N,Cc1ccc(O)c(c1)C(C)(C)C,-2.6917536232,0.0,1,G1,164.248,2.998120000000001,51.54380000000004,12.0,1.0,1.0,1.0,0.0,66.0,1.0,0.0,0.0,1.0,20.23,74.050347443676,3.231425013090014,281.54585362509573
A-989,"N,N,N-trimethylanilinium chloride","InChI=1S/C9H14N.ClH/c1-10(2,3)9-7-5-4-6-8-9;/h4-8H,1-3H3;1H/q+1;/p-1",MQAYPFVXSPHGJM-UHFFFAOYSA-M,[Cl-].C[N+](C)(C)c1ccccc1,0.28774729649999997,0.0,1,G1,171.67100000000002,-1.1126999999999976,46.00800000000004,11.0,0.0,0.0,2.0,1.0,62.0,1.0,0.0,0.0,1.0,0.0,74.64912787203491,9.99999827000031e-07,200.55275983338595