ID,Name,InChI,InChIKey,SMILES,Solubility,SD,Ocurrences,Group,MolWt,MolLogP,MolMR,HeavyAtomCount,NumHAcceptors,NumHDonors,NumHeteroatoms,NumRotatableBonds,NumValenceElectrons,NumAromaticRings,NumSaturatedRings,NumAliphaticRings,RingCount,TPSA,LabuteASA,BalabanJ,BertzCT
A-485,1-phenylethan-1-one,"InChI=1S/C8H8O/c1-7(9)8-5-3-2-4-6-8/h2-6H,1H3",KWOLFJPFCHCOCG-UHFFFAOYSA-N,CC(=O)c1ccccc1,-1.2803868403,0.059623190181019046,4,G5,120.15099999999995,1.8892,36.44650000000001,9.0,1.0,0.0,1.0,1.0,46.0,1.0,0.0,0.0,1.0,17.07,54.32280944833394,2.981454614041131,201.06743705866424
A-487,(3E)-4-methyldec-3-en-5-ol,"InChI=1S/C11H22O/c1-4-6-7-9-11(12)10(3)8-5-2/h8,11-12H,4-7,9H2,1-3H3/b10-8+",WSTQLNQRVZNEDV-CSKARUKUSA-N,CCCCCC(O)C(/C)=C/CC,-3.4318638977,0.0,1,G1,170.29599999999996,3.283900000000002,54.19680000000004,12.0,1.0,1.0,1.0,6.0,72.0,0.0,0.0,0.0,0.0,20.23,76.49330289180737,3.5610237221353196,126.9658022036436
A-488,butyl butanoate,"InChI=1S/C8H16O2/c1-3-5-7-10-8(9)6-4-2/h3-7H2,1-2H3",XUPYJHCZDLZNFP-UHFFFAOYSA-N,CCCCOC(=O)CCC,-2.3610477790999997,0.049526110450000216,2,G3,144.21399999999997,2.1298000000000004,40.775000000000006,10.0,2.0,0.0,2.0,5.0,60.0,0.0,0.0,0.0,0.0,26.3,62.56891315815645,3.0523751890457076,89.25838096618138
A-491,"benzene-1,2-dicarboxylic acid","InChI=1S/C8H6O4/c9-7(10)5-3-1-2-4-6(5)8(11)12/h1-4H,(H,9,10)(H,11,12)",XNGIFLGASWRNHJ-UHFFFAOYSA-N,OC(=O)c1ccccc1C(O)=O,-1.4245732761,0.3298649325274228,8,G5,166.13199999999998,1.083,40.360600000000005,12.0,2.0,2.0,4.0,2.0,62.0,1.0,0.0,0.0,1.0,74.6,68.07279905276974,3.267076195703771,296.58467465916425
A-492,"octahydro-1H-4,7-methanoindene-1-carbaldehyde","InChI=1S/C11H16O/c12-6-9-3-4-10-7-1-2-8(5-7)11(9)10/h6-11H,1-5H2",USPJNXWHVJTDJW-UHFFFAOYSA-N,O=CC1CCC2C3CCC(C3)C12,-2.4199676473,0.0,1,G1,164.248,2.2576,46.599000000000025,12.0,1.0,0.0,1.0,1.0,66.0,0.0,3.0,3.0,3.0,17.07,73.5327008112517,1.8893890924787464,211.0496521822662
A-493,"hydrogen peroxide - 1,2-diisopropylbenzene (1:1)","InChI=1S/C12H18.H2O2/c1-9(2)11-7-5-6-8-12(11)10(3)4;1-2/h5-10H,1-4H3;1-2H",SPTHWAJJMLCAQF-UHFFFAOYSA-N,CC(C)c1ccccc1C(C)C.OO,-2.4977135853,0.0,1,G1,196.28999999999996,3.9508000000000028,59.877600000000044,14.0,2.0,2.0,2.0,2.0,80.0,1.0,0.0,0.0,1.0,40.46,86.14464977953617,7.908332390743173e-07,227.25357133216272
A-494,"2,6-dimethylphenol","InChI=1S/C8H10O/c1-6-4-3-5-7(2)8(6)9/h3-5,9H,1-2H3",NXXYKOUNUYWIHA-UHFFFAOYSA-N,Cc1cccc(C)c1O,-1.292396158,0.1280709971038379,6,G5,122.16699999999999,2.00904,37.5808,9.0,1.0,1.0,1.0,0.0,48.0,1.0,0.0,0.0,1.0,20.23,54.95552110048619,3.2478347337367026,195.55766205433733
A-495,RHENIUM,InChI=1S/Re,WUAPFZMCVAUBPE-UHFFFAOYSA-N,[Re],-0.4755079565,0.0,1,G1,186.207,-0.0025,0.0,1.0,0.0,0.0,1.0,0.0,7.0,0.0,0.0,0.0,0.0,0.0,21.147744044975223,0.0,0.0
A-496,1-phenylpropan-1-ol,"InChI=1S/C9H12O/c1-2-9(10)8-6-4-3-5-7-8/h3-7,9-10H,2H2,1H3",DYUQAZSOFZSPHD-UHFFFAOYSA-N,CCC(O)c1ccccc1,-2.3403675905,0.0,1,G1,136.194,2.13,41.69280000000002,10.0,1.0,1.0,1.0,2.0,54.0,1.0,0.0,0.0,1.0,20.23,61.32046321488279,2.746978188530898,181.1795714166762
A-497,1-[3-(trifluoromethyl)phenyl]ethan-1-one,"InChI=1S/C9H7F3O/c1-6(13)7-3-2-4-8(5-7)9(10,11)12/h2-5H,1H3",ABXGMGUHGLQMAW-UHFFFAOYSA-N,CC(=O)c1cccc(c1)C(F)(F)F,-2.4821079167,0.0,1,G1,188.14799999999994,2.9080000000000013,41.44850000000002,13.0,1.0,0.0,4.0,1.0,70.0,1.0,0.0,0.0,1.0,17.07,73.18435777150926,3.131063793808188,327.87685346687334
A-498,"2,4-dichloroaniline","InChI=1S/C6H5Cl2N/c7-4-1-2-6(9)5(8)3-4/h1-3H,9H2",KQCMTOWTPBNWDB-UHFFFAOYSA-N,Nc1ccc(Cl)cc1Cl,-2.4171742578,0.06958958789999992,2,G3,162.019,2.5756000000000006,40.87440000000001,9.0,1.0,1.0,3.0,0.0,48.0,1.0,0.0,0.0,1.0,26.02,63.377826270273026,3.171678030440915,222.29788705001033
A-499,"1,7,7-trimethylbicyclo[2.2.1]hept-2-yl acetate","InChI=1S/C12H20O2/c1-8(13)14-10-7-9-5-6-12(10,4)11(9,2)3/h9-10H,5-7H2,1-4H3/t9-,10+,12+/m0/s1",KGEKLUUHTZCSIP-HOSYDEDBSA-N,CC(=O)O[C@@H]1C[C@@H]2CC[C@@]1(C)C2(C)C,-3.4963238418,0.0,1,G1,196.29,2.7643000000000013,54.783000000000044,14.0,2.0,0.0,2.0,1.0,80.0,0.0,2.0,2.0,2.0,26.3,86.01701930868443,2.225540267260561,269.49529453537843
A-500,4-[4-(hydrazinesulfonyl)phenoxy]benzene-1-sulfonohydrazide,"InChI=1S/C12H14N4O5S2/c13-15-22(17,18)11-5-1-9(2-6-11)21-10-3-7-12(8-4-10)23(19,20)16-14/h1-8,15-16H,13-14H2",NBOCQTNZUPTTEI-UHFFFAOYSA-N,NN[S](=O)(=O)c1ccc(Oc2ccc(cc2)[S](=O)(=O)NN)cc1,-3.7584891954,0.0,1,G1,358.40100000000007,-0.21709999999999935,81.9758,23.0,7.0,4.0,11.0,6.0,124.0,2.0,0.0,0.0,2.0,153.61,132.8433721416095,2.1705311642072718,802.5532181373549
A-501,strontium(2+) ion hydrogen phosphate,"InChI=1S/H3O4P.Sr/c1-5(2,3)4;/h(H3,1,2,3,4);/q;+2/p-3",HKSVWJWYDJQNEV-UHFFFAOYSA-K,[Sr++].[O-][P]([O-])([O-])=O,-3.4683853883999998,0.0,1,G1,182.58999999999997,-3.2054,13.3605,6.0,4.0,0.0,6.0,0.0,32.0,0.0,0.0,0.0,0.0,86.25,71.69461662928826,0.0,53.68367439558379
A-503,"Alkenes, C9-11, C10-rich","InChI=1S/C10H16/c1-3-5-7-9-10-8-6-4-2/h3,5-8H,1,4,9-10H2,2H3/b7-5+,8-6+",FDBJNQUXZRDJHC-KQQUZDAGSA-N,CC/C=C/CC/C=C/C=C,-3.34190657,0.12051603300000013,2,G3,136.23799999999997,3.4750000000000023,48.00200000000003,10.0,0.0,0.0,0.0,5.0,56.0,0.0,0.0,0.0,0.0,0.0,63.954920960846245,3.11409266486537,118.0
A-504,"(2Z)-but-2-ene-1,4-diol","InChI=1S/C4H8O2/c5-3-1-2-4-6/h1-2,5-6H,3-4H2/b2-1-",ORTVZLZNOYNASJ-UPHRSURJSA-N,OC\C=C/CO,0.8466851642000001,0.0,1,G1,88.10600000000001,-0.47280000000000005,23.31159999999999,6.0,2.0,2.0,2.0,2.0,36.0,0.0,0.0,0.0,0.0,40.46,36.73294184322714,2.7343859935615478,34.81274391313339
A-506,2-[2-(2-ethoxyethoxy)ethoxy]ethyl methacrylate,"InChI=1S/C12H22O5/c1-4-14-5-6-15-7-8-16-9-10-17-12(13)11(2)3/h2,4-10H2,1,3H3",RBFPEAGEJJSYCX-UHFFFAOYSA-N,CCOCCOCCOCCOC(=O)C(C)=C,-0.6030114261,0.0,1,G1,246.30299999999994,1.1753999999999998,63.904000000000046,17.0,5.0,0.0,5.0,11.0,100.0,0.0,0.0,0.0,0.0,53.99,102.67971427207927,3.0844161230538156,214.94152779678768
A-508,"(6R,7R)-3-[(acetyloxy)methyl]-7-amino-8-oxo-5-thia-1-azabicyclo[4.2.0]oct-2-ene-2-carboxylic acid","InChI=1S/C10H12N2O5S/c1-4(13)17-2-5-3-18-9-6(11)8(14)12(9)7(5)10(15)16/h6,9H,2-3,11H2,1H3,(H,15,16)/t6-,9-/m1/s1",HSHGZXNAXBPPDL-HZGVNTEJSA-N,CC(=O)OCC1=C(N2[C@H](SC1)[C@H](N)C2=O)C(O)=O,-2.6489777216999997,0.0,1,G1,272.282,-0.8693999999999988,62.36220000000001,18.0,6.0,2.0,8.0,3.0,98.0,0.0,1.0,2.0,2.0,109.93,106.93764439257184,2.2586237072249626,461.18439211606693
A-511,decanoic acid,"InChI=1S/C10H20O2/c1-2-3-4-5-6-7-8-9-10(11)12/h2-9H2,1H3,(H,11,12)",GHVNFZFCNZKVNT-UHFFFAOYSA-N,CCCCCCCCCC(O)=O,-3.4452161366000005,0.19255139200000038,2,G3,172.268,3.2117000000000013,50.245800000000024,12.0,1.0,1.0,2.0,8.0,72.0,0.0,0.0,0.0,0.0,37.3,74.97948590963883,2.86138733944056,110.40620687739315
A-514,2-methylpropane,"InChI=1S/C4H10/c1-4(2)3/h4H,1-3H3",NNPPMTNAJDCUHE-UHFFFAOYSA-N,CC(C)C,-2.977604072,0.26537044440535323,5,G5,58.123999999999995,1.6622999999999999,20.511999999999997,4.0,0.0,0.0,0.0,0.0,26.0,0.0,0.0,0.0,0.0,0.0,27.834077371019372,2.3237900077244498,4.754887502163469
A-515,butane,"InChI=1S/C4H10/c1-3-4-2/h3-4H2,1-2H3",IJDNQMDRQITEOD-UHFFFAOYSA-N,CCCC,-2.977604072,0.25678836520448406,5,G5,58.123999999999995,1.8064,20.581999999999997,4.0,0.0,0.0,0.0,1.0,26.0,0.0,0.0,0.0,0.0,0.0,27.834077371019376,1.9747448713915894,2.0
A-516,ethane,InChI=1S/C2H6/c1-2/h1-2H3,OTMSDBZUPAUEDD-UHFFFAOYSA-N,CC,-2.6913820060000004,0.5995869859675704,5,G4,30.07,1.0262,11.348000000000003,2.0,0.0,0.0,0.0,0.0,14.0,0.0,0.0,0.0,0.0,0.0,15.104193142226158,1.0,0.0
A-519,"3-{6,6-dimethylbicyclo[3.1.1]hept-2-en-2-yl}propanal","InChI=1S/C12H18O/c1-12(2)10-6-5-9(4-3-7-13)11(12)8-10/h5,7,10-11H,3-4,6,8H2,1-2H3",DDFGFKGJBOILQZ-UHFFFAOYSA-N,CC1(C)C2CC=C(CCC=O)C1C2,-3.4657606101,0.0,1,G1,178.275,2.9579000000000013,53.37600000000004,13.0,1.0,0.0,1.0,3.0,72.0,0.0,1.0,3.0,3.0,17.07,80.2138710469933,2.050835295627111,249.85009144400766
A-520,2-(4-hydroxyphenyl)acetic acid,"InChI=1S/C8H8O3/c9-7-3-1-6(2-4-7)5-8(10)11/h1-4,9H,5H2,(H,10,11)",XQXPVVBIMDBYFF-UHFFFAOYSA-N,OC(=O)Cc1ccc(O)cc1,-0.3990804112,0.39548315518907823,3,G5,152.149,1.0192999999999999,39.44660000000002,11.0,2.0,2.0,3.0,2.0,58.0,1.0,0.0,0.0,1.0,57.53,63.91127695272596,2.7362980721056545,250.54461008172765
A-521,(4-methoxyphenyl)methyl acetate,"InChI=1S/C10H12O3/c1-8(11)13-7-9-3-5-10(12-2)6-4-9/h3-6H,7H2,1-2H3",HFNGYHHRRMSKEU-UHFFFAOYSA-N,COc1ccc(COC(C)=O)cc1,-2.4740066421,0.007756083050000084,2,G3,180.203,1.7583,48.46400000000003,13.0,3.0,0.0,3.0,3.0,70.0,1.0,0.0,0.0,1.0,35.53,77.27978413614093,2.5375612644950314,276.7262618127396
A-523,ammonium fluoride hydrofluoride,InChI=1S/2FH.H3N/h2*1H;1H3,KVBCYCWRDBDGBG-UHFFFAOYSA-N,[H+].[NH4+].[F-].[F-],1.0233941334,0.0,1,G1,57.043000000000006,-5.5033,7.0968,3.0,0.0,1.0,3.0,0.0,24.0,0.0,0.0,0.0,0.0,36.5,18.446352422147932,-0.0,6.0
A-525,"6-phenyl-1,3,5-triazine-2,4-diamine","InChI=1S/C9H9N5/c10-8-12-7(13-9(11)14-8)6-4-2-1-3-5-6/h1-5H,(H4,10,11,12,13,14)",GZVHEAJQGPRDLQ-UHFFFAOYSA-N,Nc1nc(N)nc(n1)c2ccccc2,-2.4941685135,0.13650063605000007,2,G3,187.20600000000005,0.7029999999999998,54.08780000000001,14.0,5.0,2.0,5.0,1.0,70.0,2.0,0.0,0.0,2.0,90.71,80.82722266242597,2.521303589694852,419.9602312593866
A-526,4-tert-butylcyclohexyl prop-2-enoate,"InChI=1S/C13H22O2/c1-5-12(14)15-11-8-6-10(7-9-11)13(2,3)4/h5,10-11H,1,6-9H2,2-4H3",LAIJAUHBAWLPCO-UHFFFAOYSA-N,CC(C)(C)C1CCC(CC1)OC(=O)C=C,-3.539328096,0.5394312411502424,3,G4,210.31699999999995,3.320500000000002,61.490000000000045,15.0,2.0,0.0,2.0,2.0,86.0,0.0,1.0,1.0,1.0,26.3,92.69818954442603,2.359659049742371,229.41073293730346
A-533,"1,4-dibromo-2-ethenylbenzene","InChI=1S/C8H6Br2/c1-2-6-5-7(9)3-4-8(6)10/h2-5H,1H2",KWVKCGGJLLNVSC-UHFFFAOYSA-N,Brc1ccc(Br)c(C=C)c1,-4.5787304077,0.0,1,G1,261.94399999999996,3.8546000000000014,51.93300000000001,10.0,0.0,0.0,2.0,1.0,52.0,1.0,0.0,0.0,1.0,0.0,77.20677952738866,3.211310929132047,253.4345458787203
A-535,3-hydroxy-N-(2-methylphenyl)naphthalene-2-carboxamide,"InChI=1S/C18H15NO2/c1-12-6-2-5-9-16(12)19-18(21)15-10-13-7-3-4-8-14(13)11-17(15)20/h2-11,20H,1H3,(H,19,21)",FBLAHUMENIHUGG-UHFFFAOYSA-N,Cc1ccccc1NC(=O)c2cc3ccccc3cc2O,-4.6234419541000005,0.0,1,G1,277.32300000000004,4.106120000000002,84.74500000000005,21.0,2.0,2.0,3.0,2.0,104.0,3.0,0.0,0.0,3.0,49.33,122.40566412193726,1.9794710192312177,824.3162038620292
A-539,"methyl 3-amino-5,6-dichloropyrazine-2-carboxylate","InChI=1S/C6H5Cl2N3O2/c1-13-6(12)2-5(9)11-4(8)3(7)10-2/h1H3,(H2,9,11)",USYMCUGEGUFUBI-UHFFFAOYSA-N,COC(=O)c1nc(Cl)c(Cl)nc1N,-4.5348386091,0.0,1,G1,222.031,1.1522,47.8039,13.0,5.0,1.0,7.0,1.0,70.0,1.0,0.0,0.0,1.0,78.1,83.82207379050992,3.23123060519751,355.97775522887986
A-541,"2,4,6,7-tetraoxa-1$l^{3},3$l^{2},5$l^{3}-triplumbabicyclo[3.1.1]heptane",InChI=1S/4O.3Pb,XMFOQHDPRMAJNU-UHFFFAOYSA-N,O1[Pb]O[Pb]2O[Pb]1O2,-4.0080532109,0.0,1,G1,685.596,-1.4160000000000001,21.601999999999997,7.0,4.0,0.0,7.0,0.0,36.0,0.0,3.0,3.0,3.0,36.92,74.15253193352422,1.9897472253414756,63.494317557933364
A-542,"N,N-dibutyloctadec-9-enamide","InChI=1S/C26H51NO/c1-4-7-10-11-12-13-14-15-16-17-18-19-20-21-22-23-26(28)27(24-8-5-2)25-9-6-3/h15-16H,4-14,17-25H2,1-3H3/b16-15-",YMGHPIVBMBXPCR-NXVVXOECSA-N,CCCCCCCC\C=C/CCCCCCCC(=O)N(CCCC)CCCC,-4.788985440799999,0.0,1,G1,393.7000000000002,8.452700000000007,125.8480000000001,28.0,1.0,0.0,2.0,21.0,166.0,0.0,0.0,0.0,0.0,20.310000000000002,177.0945566258077,3.511128153796721,342.3419783509676
A-543,"(1S,2S,4S)-1,7,7-trimethylbicyclo[2.2.1]heptan-2-yl 2-methylprop-2-enoate","InChI=1S/C14H22O2/c1-9(2)12(15)16-11-8-10-6-7-14(11,5)13(10,3)4/h10-11H,1,6-8H2,2-5H3",IAXXETNIOYFMLW-UHFFFAOYSA-N,CC(=C)C(=O)OC1CC2CCC1(C)C2(C)C,-4.5442204359,0.03358741279999977,2,G3,222.32799999999995,3.320500000000002,63.923000000000044,16.0,2.0,0.0,2.0,2.0,90.0,0.0,2.0,2.0,2.0,26.3,98.05730050529338,2.1592743675639525,342.6445042962167
A-545,nonyl acetate,"InChI=1S/C11H22O2/c1-3-4-5-6-7-8-9-10-13-11(2)12/h3-10H2,1-2H3",GJQIMXVRFNLMTB-UHFFFAOYSA-N,CCCCCCCCCOC(C)=O,-4.4708606495,0.0,1,G1,186.295,3.3001000000000023,54.62600000000005,13.0,2.0,0.0,2.0,8.0,78.0,0.0,0.0,0.0,0.0,26.3,81.66373950134629,2.8729187591669154,121.2586863990795
A-547,"1,3-xylene; 1,4-diethylcyclohexane; 8,15-diethylhexacosane; anthracene; naphthalene; tetradecahydroanthracene; triacontane","InChI=1S/2C30H62.C14H24.C14H10.C10H8.C10H20.C8H10/c1-5-9-11-13-14-15-16-18-22-26-30(8-4)28-24-20-19-23-27-29(7-3)25-21-17-12-10-6-2;1-3-5-7-9-11-13-15-17-19-21-23-25-27-29-30-28-26-24-22-20-18-16-14-12-10-8-6-4-2;2*1-2-6-12-10-14-8-4-3-7-13(14)9-11(12)5-1;1-2-6-10-8-4-3-7-9(10)5-1;1-3-9-5-7-10(4-2)8-6-9;1-7-4-3-5-8(2)6-7/h29-30H,5-28H2,1-4H3;3-30H2,1-2H3;11-14H,1-10H2;1-10H;1-8H;9-10H,3-8H2,1-2H3;3-6H,1-2H3",DXACIACMWHJFHD-UHFFFAOYSA-N,CCCCCCCCCCCCCCCCCCCCCCCCCCCCCC.CCCCCCCCCCCC(CC)CCCCCCC(CC)CCCCCCC.CCC1CCC(CC)CC1.Cc2cccc(C)c2.C3CCC4CC5CCCCC5CC4C3.c6ccc7ccccc7c6.c8ccc9cc%10ccccc%10cc9c8,-5.4050532611,0.5972571709499999,2,G2,1590.843999999999,40.751839999999945,528.5860000000031,116.0,0.0,0.0,0.0,54.0,660.0,6.0,4.0,4.0,10.0,0.0,724.9872692719983,2.9995886216196826e-07,2772.2498084089534
A-550,anthracene; benzene; ethylbenzene; naphthalene; tetradecane,"InChI=1S/C14H10.C14H30.C10H8.C8H10.C6H6/c1-2-6-12-10-14-8-4-3-7-13(14)9-11(12)5-1;1-3-5-7-9-11-13-14-12-10-8-6-4-2;1-2-6-10-8-4-3-7-9(10)5-1;1-2-8-6-4-3-5-7-8;1-2-4-6-5-3-1/h1-10H;3-14H2,1-2H3;1-8H;3-7H,2H2,1H3;1-6H",PBMFOKZETGSLTK-UHFFFAOYSA-N,CCCCCCCCCCCCCC.CCc1ccccc1.c2ccccc2.c3ccc4ccccc4c3.c5ccc6cc7ccccc7cc6c5,-5.0416978328,0.5972571709500003,2,G2,689.0840000000001,16.475799999999964,234.41599999999912,52.0,0.0,0.0,0.0,12.0,272.0,7.0,0.0,0.0,7.0,0.0,316.5100777773571,1.8053760748192369e-07,1628.0208283899958
A-551,naphthalene,InChI=1S/C10H8/c1-2-6-10-8-4-3-7-9(10)5-1/h1-8H,UFWIBTONFRDIAS-UHFFFAOYSA-N,c1ccc2ccccc2c1,-4.3112256046,0.7189518625146027,5,G4,128.17399999999995,2.839800000000001,43.94800000000003,10.0,0.0,0.0,0.0,0.0,48.0,2.0,0.0,0.0,2.0,0.0,60.11306765123217,2.8880516016579914,271.01518240905483
A-553,cyclohexyl 2-hydroxybenzoate,"InChI=1S/C13H16O3/c14-12-9-5-4-8-11(12)13(15)16-10-6-2-1-3-7-10/h4-5,8-10,14H,1-3,6-7H2",NUQDJSMHGCTKNL-UHFFFAOYSA-N,Oc1ccccc1C(=O)OC2CCCCC2,-4.5540762927,0.03229962310000012,2,G3,220.26799999999992,2.8817000000000013,60.395300000000034,16.0,3.0,1.0,3.0,2.0,86.0,1.0,1.0,1.0,2.0,46.53,95.04946784849065,1.9953977722801715,367.1953853570545
A-554,(4R)-1-methyl-4-(prop-1-en-2-yl)cyclohex-1-ene,"InChI=1S/C10H16/c1-8(2)10-6-4-9(3)5-7-10/h4,10H,1,5-7H2,2-3H3/t10-/m0/s1",XMGQYMWWDOXHJM-JTQLQIEISA-N,CC(=C)[C@@H]1CCC(=CC1)C,-4.346837785,0.17426641779787772,3,G5,136.238,3.308900000000002,45.91200000000003,10.0,0.0,0.0,0.0,1.0,56.0,0.0,0.0,1.0,1.0,0.0,63.63869283950127,2.495412226862891,162.8771237954945
A-555,hex-3-en-1-yl hex-3-enoate,"InChI=1S/C12H20O2/c1-3-5-7-9-11-14-12(13)10-8-6-4-2/h5-8H,3-4,9-11H2,1-2H3/b7-5-,8-6-",UZJQQWFHPLYECS-SFECMWDFSA-N,CC\C=C/CCOC(=O)C\C=C/CC,-4.5097094839,0.06626583163968941,5,G5,196.29,3.242200000000002,59.05500000000004,14.0,2.0,0.0,2.0,7.0,80.0,0.0,0.0,0.0,0.0,26.3,86.64947555137437,3.3527241610357215,192.49841012019368
A-556,"13-ethyl-3-methoxy-4,6,7,8,9,11,12,13,14,15,16,17-dodecahydro-1H-cyclopenta[a]phenanthren-17-ol (non-preferred name)","InChI=1S/C20H30O2/c1-3-20-11-10-16-15-7-5-14(22-2)12-13(15)4-6-17(16)18(20)8-9-19(20)21/h5,16-19,21H,3-4,6-12H2,1-2H3/t16-,17-,18+,19+,20+/m1/s1",DKGAZBPXLWEBPI-SLHNCBLASA-N,CC[C@]12CC[C@H]3[C@@H](CCC4=C3CC=C(C4)OC)[C@@H]1CC[C@@H]2O,-4.7025138257,0.0,1,G1,302.458,4.594400000000005,88.25480000000005,22.0,2.0,1.0,2.0,2.0,122.0,0.0,2.0,4.0,4.0,29.46,134.17839950458256,1.6121118600673956,517.8002857699712
A-557,"2,3-dihydroxypropyl laurate","InChI=1S/C15H30O4/c1-2-3-4-5-6-7-8-9-10-11-15(18)19-13-14(17)12-16/h14,16-17H,2-13H2,1H3",ARIWANIATODDMH-UHFFFAOYSA-N,CCCCCCCCCCCC(=O)OCC(O)CO,-4.6602344394,0.38907562515000027,2,G3,274.40099999999995,2.8037000000000014,75.89560000000004,19.0,4.0,2.0,4.0,13.0,114.0,0.0,0.0,0.0,0.0,66.76,116.71197546332476,3.1839590366954367,206.32225504134138
A-558,2-benzoyl-5-methoxyphenol,"InChI=1S/C14H12O3/c1-17-11-7-8-12(13(15)9-11)14(16)10-5-3-2-4-6-10/h2-9,15H,1H3",DXGLGDHPHMLXJC-UHFFFAOYSA-N,COc1ccc(c(O)c1)C(=O)c2ccccc2,-4.5802538276,0.15051499784999978,2,G3,228.24699999999999,2.6318,64.53330000000003,17.0,3.0,1.0,3.0,3.0,86.0,2.0,0.0,0.0,2.0,46.53,99.28768263610088,2.382869010605733,532.4185153473758
A-560,Vertofix,"InChI=1S/C17H26O/c1-10-6-7-15-16(4,5)14-9-17(10,15)8-13(11(14)2)12(3)18/h10,14-15H,6-9H2,1-5H3",YBUIAJZFOGJGLJ-UHFFFAOYSA-N,CC1CCC2C(C)(C)C3CC12CC(=C3C)C(C)=O,-4.6134788775999995,0.0,1,G1,246.39399999999992,4.3742000000000045,74.20700000000005,18.0,1.0,0.0,1.0,1.0,100.0,0.0,2.0,3.0,3.0,17.07,111.03275046544711,2.149334590314391,442.52644523812154
A-563,ethyl benzoate,"InChI=1S/C9H10O2/c1-2-11-9(10)8-6-4-3-5-7-8/h3-7H,2H2,1H3",MTZQAGJQAFMTAQ-UHFFFAOYSA-N,CCOC(=O)c1ccccc1,-2.3999022404,0.0646548303093888,3,G5,150.177,1.8633,42.39850000000003,11.0,2.0,0.0,2.0,2.0,58.0,1.0,0.0,0.0,1.0,26.3,65.80129679223742,2.6930079504145,228.57786591623355
A-564,3-phenylpropanoic acid,"InChI=1S/C9H10O2/c10-9(11)7-6-8-4-2-1-3-5-8/h1-5H,6-7H2,(H,10,11)",XMIIGOLPHOKFCH-UHFFFAOYSA-N,OC(=O)CCc1ccccc1,-1.4057514128,0.09787570639999998,2,G3,150.177,1.7038,42.39880000000003,11.0,1.0,1.0,2.0,3.0,58.0,1.0,0.0,0.0,1.0,37.3,65.48198531492656,2.453018743531937,228.5778659162335
A-566,"(2E)-3,7-dimethylocta-2,6-dienal","InChI=1S/C10H16O/c1-9(2)5-4-6-10(3)7-8-11/h5,7-8H,4,6H2,1-3H3/b10-7+",WTEVQBCEXWBHNA-JXMROGBWSA-N,CC(C)=CCC\C(C)=C\C=O,-2.4116682055000003,0.21168318561134697,3,G5,152.237,2.878000000000001,48.48600000000003,11.0,1.0,0.0,1.0,4.0,62.0,0.0,0.0,0.0,0.0,17.07,68.80604609307427,3.6257596603687854,171.3117986128446
A-568,2-hexylcyclopentanone,"InChI=1S/C11H20O/c1-2-3-4-5-7-10-8-6-9-11(10)12/h10H,2-9H2,1H3",JTHVYOIHZNYRCC-UHFFFAOYSA-N,CCCCCCC1CCCC1=O,-3.4515155375999997,0.0,1,G1,168.27999999999997,3.3260000000000023,51.107000000000035,12.0,1.0,0.0,1.0,5.0,70.0,0.0,1.0,1.0,1.0,17.07,75.54436311831019,2.022982494030426,139.93953880615516
A-569,"2,4,4,7-tetramethyloct-6-en-3-one","InChI=1S/C12H22O/c1-9(2)7-8-12(5,6)11(13)10(3)4/h7,10H,8H2,1-6H3",CTLDWNVYXLHMAS-UHFFFAOYSA-N,CC(C)C(=O)C(C)(C)CC=C(C)C,-3.4892158636,0.0,1,G1,182.307,3.594000000000003,57.67400000000004,13.0,1.0,0.0,1.0,4.0,76.0,0.0,0.0,0.0,0.0,17.07,82.22553335405173,4.397313867312246,205.16436636179586
A-570,"Phenol, styrenated","InChI=1S/C10H10O/c1-3-8-5-6-10(11)9(4-2)7-8/h3-7,11H,1-2H2",GZGSEMRMKBBQGA-UHFFFAOYSA-N,Oc1ccc(C=C)cc1C=C,-3.3940626837,1.3854260057999996,2,G2,146.189,2.6782000000000012,48.28880000000002,11.0,1.0,1.0,1.0,2.0,56.0,1.0,0.0,0.0,1.0,20.23,66.3061992649109,3.2178354020244417,286.92429328191577
A-574,2-amino-5-chlorophenol,"InChI=1S/C6H6ClNO/c7-4-1-2-5(8)6(9)3-4/h1-3,9H,8H2",FZCQMIRJCGWWCL-UHFFFAOYSA-N,Nc1ccc(Cl)cc1O,-2.3906599281,0.0,1,G1,143.573,1.6278,37.52920000000001,9.0,2.0,2.0,3.0,0.0,48.0,1.0,0.0,0.0,1.0,46.25,57.86879379558736,3.171678030440915,224.29788705001033
A-575,4-ethoxybenzoic acid,"InChI=1S/C9H10O3/c1-2-12-8-5-3-7(4-6-8)9(10)11/h3-6H,2H2,1H3,(H,10,11)",SHSGDXCJYVZFTP-UHFFFAOYSA-N,CCOc1ccc(cc1)C(O)=O,-2.4548997462,0.0,1,G1,166.17599999999996,1.7834999999999999,44.57030000000002,12.0,2.0,1.0,3.0,3.0,64.0,1.0,0.0,0.0,1.0,46.53,70.59553054443344,2.780862288870475,263.60706625991145
A-576,lead(+2) cation dicarbonate dihydroxide,"InChI=1S/2CH2O3.2H2O.3Pb/c2*2-1(3)4;;;;;/h2*(H2,2,3,4);2*1H2;;;/q;;;;3*+2/p-6",RYZCLUQMCYZBJQ-UHFFFAOYSA-H,[OH-].[OH-].[Pb++].[Pb++].[Pb++].[O-]C([O-])=O.[O-]C([O-])=O,-5.5472319177,0.05598687970000027,2,G3,775.6300000000001,-6.390000000000002,31.925599999999996,13.0,8.0,0.0,11.0,0.0,70.0,0.0,0.0,0.0,0.0,186.38,133.41916508214055,-7.999999970370371e-09,75.38992885097848
A-578,"2,6-dichloro-4-(trifluoromethyl)aniline","InChI=1S/C7H4Cl2F3N/c8-4-1-3(7(10,11)12)2-5(9)6(4)13/h1-2H,13H2",ITNMAZSPBLRJLU-UHFFFAOYSA-N,Nc1c(Cl)cc(cc1Cl)C(F)(F)F,-3.591642752,0.0,1,G1,230.01599999999993,3.5944000000000003,45.8764,13.0,1.0,1.0,6.0,0.0,72.0,1.0,0.0,0.0,1.0,26.02,82.23937459344833,3.292030545545625,311.994919021124