ID,Name,InChI,InChIKey,SMILES,Solubility,SD,Ocurrences,Group,MolWt,MolLogP,MolMR,HeavyAtomCount,NumHAcceptors,NumHDonors,NumHeteroatoms,NumRotatableBonds,NumValenceElectrons,NumAromaticRings,NumSaturatedRings,NumAliphaticRings,RingCount,TPSA,LabuteASA,BalabanJ,BertzCT
A-1231,"2-[2-ethoxy-5-(4-ethylpiperazin-1-yl)sulfonylphenyl]-5-methyl-7-propyl-1H-imidazo[5,1-f][1,2,4]triazin-4-one","InChI=1S/C23H32N6O4S/c1-5-8-20-24-16(4)21-23(30)25-22(26-29(20)21)18-15-17(9-10-19(18)33-7-3)34(31,32)28-13-11-27(6-2)12-14-28/h9-10,15H,5-8,11-14H2,1-4H3,(H,25,26,30)",SECKRCOLJRRGGV-UHFFFAOYSA-N,CCCc1nc(C)c2n1NC(=NC2=O)c3cc(ccc3OCC)[S](=O)(=O)N4CCN(CC)CC4,-4.8438678664,0.0,1,G1,488.61400000000043,2.0704199999999995,129.81750000000005,34.0,8.0,1.0,11.0,8.0,184.0,3.0,1.0,1.0,4.0,112.89999999999998,199.16304001362022,1.8159231890244245,1339.4796294691944
A-1232,(9E)-N-[3-(dimethylamino)propyl]octadec-9-enamide,"InChI=1S/C23H46N2O/c1-4-5-6-7-8-9-10-11-12-13-14-15-16-17-18-20-23(26)24-21-19-22-25(2)3/h11-12H,4-10,13-22H2,1-3H3,(H,24,26)/b12-11+",UCWYGNTYSWIDSW-VAWYXSNFSA-N,CCCCCCCC/C=C/CCCCCCCC(=O)NCCCN(C)C,-4.1492593891,0.8426985986,2,G2,366.63400000000007,6.091800000000006,115.6327000000001,26.0,2.0,1.0,3.0,19.0,154.0,0.0,0.0,0.0,0.0,32.34,163.54959246622593,3.2052350881533394,326.1695076823571
A-1233,"1,3-dichloro-2-methylbenzene","InChI=1S/C7H6Cl2/c1-5-6(8)3-2-4-7(5)9/h2-4H,1H3",DMEDNTFWIHCBRK-UHFFFAOYSA-N,Cc1c(Cl)cccc1Cl,-3.7919361419,0.0,1,G1,161.03099999999998,3.301820000000001,41.19900000000001,9.0,0.0,0.0,2.0,0.0,48.0,1.0,0.0,0.0,1.0,0.0,64.40287768765691,3.2478347337367035,197.9061775999341
A-1234,cyclododecanone,InChI=1S/C12H22O/c13-12-10-8-6-4-2-1-3-5-7-9-11-12/h1-11H2,SXVPOSFURRDKBO-UHFFFAOYSA-N,O=C1CCCCCCCCCCC1,-3.8458299964999996,0.1191195828999998,2,G3,182.30699999999996,3.8602000000000034,55.79400000000005,13.0,1.0,0.0,1.0,0.0,76.0,0.0,1.0,1.0,1.0,17.07,81.9093052327068,2.144560008407528,126.05990292969187
A-1235,"3,7-dimethyloct-6-en-1-yn-3-ol","InChI=1S/C10H16O/c1-5-10(4,11)8-6-7-9(2)3/h1,7,11H,6,8H2,2-4H3",YWTIDNZYLFTNQQ-UHFFFAOYSA-N,CC(C)=CCCC(C)(O)C#C,-1.7720804309,0.0,1,G1,152.237,2.117,48.12180000000002,11.0,1.0,1.0,1.0,3.0,62.0,0.0,0.0,0.0,0.0,20.23,69.12758616927005,3.7365447763291164,177.53968307185082
A-1236,4-methyl-3-nitrobenzoic acid,"InChI=1S/C8H7NO4/c1-5-2-3-6(8(10)11)4-7(5)9(12)13/h2-4H,1H3,(H,10,11)",BBEWSMNRCUXQRF-UHFFFAOYSA-N,Cc1ccc(cc1[N+]([O-])=O)C(O)=O,-2.8480980227,0.0,1,G1,181.147,1.60142,44.79270000000001,13.0,3.0,1.0,5.0,2.0,68.0,1.0,0.0,0.0,1.0,80.44,73.77001892302977,3.267052212361692,372.4068180287228
A-1237,3-amino-4-methoxybenzenesulfonic acid,"InChI=1S/C7H9NO4S/c1-12-7-3-2-5(4-6(7)8)13(9,10)11/h2-4H,8H2,1H3,(H,9,10,11)",FLIOATBXVNLPLK-UHFFFAOYSA-N,COc1ccc(cc1N)[S](O)(=O)=O,-0.8997243446,0.5430103353,2,G2,203.219,0.5241,47.22100000000001,13.0,4.0,2.0,6.0,2.0,72.0,1.0,0.0,0.0,1.0,89.62,75.87841717045377,3.2581908733813196,412.5007607986796
A-1239,"(3,4-dihydroxyphenyl)-phenylmethanone","InChI=1S/C13H10O3/c14-11-7-6-10(8-12(11)15)13(16)9-4-2-1-3-5-9/h1-8,14-15H",ARWCZKJISXFBGI-UHFFFAOYSA-N,Oc1ccc(cc1O)C(=O)c2ccccc2,-2.9226200497000003,0.0,1,G1,214.22,2.3288,59.64610000000003,16.0,3.0,2.0,3.0,2.0,80.0,2.0,0.0,0.0,2.0,57.53,92.60342904439341,2.3860005891578475,517.9558452490421
A-1240,"2-[(E)-2-{4-[ethyl(2-hydroxyethyl)amino]phenyl}diazen-1-yl]-6-methoxy-3-methyl-1,3-benzothiazol-3-ium acetate","InChI=1S/C19H23N4O2S.C2H4O2/c1-4-23(11-12-24)15-7-5-14(6-8-15)20-21-19-22(2)17-10-9-16(25-3)13-18(17)26-19;1-2(3)4/h5-10,13,24H,4,11-12H2,1-3H3;1H3,(H,3,4)/q+1;/p-1",BLZWSNCCDXVOPZ-UHFFFAOYSA-M,CCN(CCO)c1ccc(cc1)N=Nc2sc3cc(OC)ccc3[n+]2C.CC([O-])=O,-0.2262726911,0.0,1,G1,430.5300000000002,2.7246000000000015,115.82480000000007,30.0,8.0,1.0,9.0,7.0,160.0,3.0,0.0,0.0,3.0,101.43,179.23565901258678,7.352562070404895e-07,998.1590516320349
A-1243,(4R)-4-methyl-2-propyloxan-4-yl acetate (4S)-4-methyl-2-propyloxan-4-yl acetate,"InChI=1S/2C11H20O3/c2*1-4-5-10-8-11(3,6-7-13-10)14-9(2)12/h2*10H,4-8H2,1-3H3/t2*10?,11-/m10/s1",TWUVPRFPARHRLV-URIZOGIISA-N,CCCC1C[C@](C)(CCO1)OC(C)=O.CCCC2C[C@@](C)(CCO2)OC(C)=O,-2.2047232328,0.0,1,G1,400.55600000000027,4.574600000000005,108.1060000000001,28.0,6.0,0.0,6.0,6.0,164.0,0.0,2.0,2.0,2.0,71.06,170.1744293947442,2.799999918285717e-07,445.4186496433476
A-1245,3-(aminomethyl)heptane,"InChI=1S/C8H19N/c1-3-5-6-8(4-2)7-9/h8H,3-7,9H2,1-2H3",LTHNHFOGQMKPOV-UHFFFAOYSA-N,CCCCC(CC)CN,-1.7134804626,0.0,1,G1,129.24699999999999,2.1615,42.3604,9.0,1.0,1.0,1.0,5.0,56.0,0.0,0.0,0.0,0.0,26.02,58.63373652561851,3.0922461946023914,48.52932501298081
A-1246,3-chloro-4-methylaniline,"InChI=1S/C7H8ClN/c1-5-2-3-6(9)4-7(5)8/h2-4H,9H2,1H3",RQKFYFNZSHWXAW-UHFFFAOYSA-N,Cc1ccc(N)cc1Cl,-1.7531263116999998,0.012652932599999889,2,G3,141.601,2.23062,40.60140000000001,9.0,1.0,1.0,2.0,0.0,48.0,1.0,0.0,0.0,1.0,26.02,59.439502157787956,3.171678030440915,220.15617759993404
A-1247,"2-(2,4-dihydroxyphenyl)-3,5,7-trihydroxy-4H-chromen-4-one","InChI=1S/C15H10O7/c16-6-1-2-8(9(18)3-6)15-14(21)13(20)12-10(19)4-7(17)5-11(12)22-15/h1-5,16-19,21H",YXOLAZRVSSWPPT-UHFFFAOYSA-N,Oc1ccc(c(O)c1)C2=C(O)C(=O)c3c(O)cc(O)cc3O2,-3.0824090581,0.0,1,G1,302.238,1.9879999999999998,76.244,22.0,7.0,5.0,7.0,1.0,112.0,3.0,0.0,0.0,3.0,131.36,122.10766954232908,2.407728670949308,956.2426827834671
A-1252,"4-[1,1-bis(4-hydroxyphenyl)ethyl]phenol","InChI=1S/C20H18O3/c1-20(14-2-8-17(21)9-3-14,15-4-10-18(22)11-5-15)16-6-12-19(23)13-7-16/h2-13,21-23H,1H3",BRPSWMCDEYMRPE-UHFFFAOYSA-N,CC(c1ccc(O)cc1)(c2ccc(O)cc2)c3ccc(O)cc3,-4.086559757,0.0,1,G1,306.36100000000005,4.157700000000002,89.87640000000002,23.0,3.0,3.0,3.0,3.0,116.0,3.0,0.0,0.0,3.0,60.69,134.65817701700627,2.214535429019411,676.8716935016806
A-1254,"2,4-dichloro-1-methylbenzene","InChI=1S/C7H6Cl2/c1-5-2-3-6(8)4-7(5)9/h2-4H,1H3",FUNUTBJJKQIVSY-UHFFFAOYSA-N,Cc1ccc(Cl)cc1Cl,-3.8089694812,0.24742501085000024,2,G3,161.031,3.301820000000001,41.19900000000002,9.0,0.0,0.0,2.0,0.0,48.0,1.0,0.0,0.0,1.0,0.0,64.40287768765691,3.171678030440915,218.15617759993404
A-1255,"(4-methoxy-2,2-dimethyl-3a,4,6,6a-tetrahydrofuro[3,4-d][1,3]dioxol-6-yl)methyl 4-methylbenzenesulfonate","InChI=1S/C16H22O7S/c1-10-5-7-11(8-6-10)24(17,18)20-9-12-13-14(15(19-4)21-12)23-16(2,3)22-13/h5-8,12-15H,9H2,1-4H3",IAPMZKRZMYQZSW-UHFFFAOYSA-N,COC1OC(CO[S](=O)(=O)c2ccc(C)cc2)C3OC(C)(C)OC13,-4.1564425332,0.0,1,G1,358.4120000000001,1.59172,83.81180000000006,24.0,7.0,0.0,8.0,5.0,134.0,1.0,2.0,2.0,3.0,80.29,141.47129036178362,1.6868812594540719,682.882406600586
A-1256,1-methoxy-2-methylbenzene,"InChI=1S/C8H10O/c1-7-5-3-4-6-8(7)9-2/h3-6H,1-2H3",DTFKRVXLBCAIOZ-UHFFFAOYSA-N,COc1ccccc1C,-2.6890833932,0.0,1,G1,122.16699999999997,2.0036199999999997,37.73100000000001,9.0,1.0,0.0,1.0,1.0,48.0,1.0,0.0,0.0,1.0,9.23,55.274832577797056,3.0065240073265844,193.51405299160075
A-1258,"(2,4-dichlorophenyl)acetic acid","InChI=1S/C8H6Cl2O2/c9-6-2-1-5(3-8(11)12)7(10)4-6/h1-2,4H,3H2,(H,11,12)",GXMWLJKTGBZMBH-UHFFFAOYSA-N,OC(=O)Cc1ccc(Cl)cc1Cl,-2.9191416399000003,0.08815906708224464,3,G5,205.04,2.6205000000000007,47.801800000000014,12.0,1.0,1.0,4.0,2.0,64.0,1.0,0.0,0.0,1.0,37.3,79.7235756542933,2.9348021246299894,309.92621196610224
A-1259,2-(chloromethyl)oxirane; 4-[2-(4-hydroxyphenyl)propan-2-yl]phenol,"InChI=1S/C15H16O2.C3H5ClO/c1-15(2,11-3-7-13(16)8-4-11)12-5-9-14(17)10-6-12;4-1-3-2-5-3/h3-10,16-17H,1-2H3;3H,1-2H2",KUBDPQJOLOUJRM-UHFFFAOYSA-N,CC(C)(c1ccc(O)cc1)c2ccc(O)cc2.ClCC3CO3,-5.0291347649,0.03275077439999974,2,G3,320.81600000000014,4.0477000000000025,88.80160000000004,22.0,3.0,2.0,4.0,3.0,118.0,2.0,1.0,1.0,3.0,52.99,135.68342897272123,2.9854899403895514e-07,539.2342629459157
A-1261,Zirconium propionate,"InChI=1S/C3H6O2.Zr/c1-2-3(4)5;/h2H2,1H3,(H,4,5);/q;+4/p-1",TVCBSVKTTHLKQC-UHFFFAOYSA-M,[Zr+4].CCC([O-])=O,-2.8232791913999997,0.3144585809,2,G3,164.295,-0.8562000000000001,15.298000000000002,6.0,2.0,0.0,3.0,1.0,30.0,0.0,0.0,0.0,0.0,40.129999999999995,55.67314869945338,0.0,44.057856410969926
A-1263,4-chlorobenzonitrile,InChI=1S/C7H4ClN/c8-7-3-1-6(5-9)2-4-7/h1-4H,GJNGXPDXRVXSEH-UHFFFAOYSA-N,Clc1ccc(cc1)C#N,-2.749354496,0.0,1,G1,137.56899999999996,2.2116799999999994,36.167000000000016,9.0,1.0,0.0,2.0,0.0,44.0,1.0,0.0,0.0,1.0,23.79,58.49219114224395,3.05603839622726,232.08821798626082
A-1268,1-chloro-4-nitrobenzene,InChI=1S/C6H4ClNO2/c7-5-1-3-6(4-2-5)8(9)10/h1-4H,CZGCEKJOLUNIFY-UHFFFAOYSA-N,[O-][N+](=O)c1ccc(Cl)cc1,-2.8118286729000004,0.13619423703187458,5,G5,157.55599999999998,2.2481999999999998,38.106400000000015,10.0,2.0,0.0,4.0,1.0,52.0,1.0,0.0,0.0,1.0,43.14,62.387645068878435,3.003400684579818,244.42965837655686
A-1269,4-(propan-2-yl)benzaldehyde,"InChI=1S/C10H12O/c1-8(2)10-5-3-9(7-11)4-6-10/h3-8H,1-2H3",WTWBUQJHJGUZCY-UHFFFAOYSA-N,CC(C)c1ccc(C=O)cc1,-2.7852565820999997,0.30719686319999995,2,G3,148.20499999999998,2.6225000000000014,45.91850000000003,11.0,1.0,0.0,1.0,2.0,58.0,1.0,0.0,0.0,1.0,17.07,67.05269367712715,2.90982279990154,233.55461928814682
A-1270,4-[(2-methylprop-2-enoyl)oxy]butyl 2-methylprop-2-enoate,"InChI=1S/C12H18O4/c1-9(2)11(13)15-7-5-6-8-16-12(14)10(3)4/h1,3,5-8H2,2,4H3",XOJWAAUYNWGQAU-UHFFFAOYSA-N,CC(=C)C(=O)OCCCCOC(=O)C(C)=C,-2.969024542,0.0,1,G1,226.27199999999996,2.0052,60.78000000000004,16.0,4.0,0.0,4.0,7.0,90.0,0.0,0.0,0.0,0.0,52.6,95.92454288092503,3.413855766899512,261.39388572785725
A-1274,1-(3-chlorophenyl)propan-1-one,"InChI=1S/C9H9ClO/c1-2-9(11)7-4-3-5-8(10)6-7/h3-6H,2H2,1H3",PQWGFUFROKIJBO-UHFFFAOYSA-N,CCC(=O)c1cccc(Cl)c1,-1.8467055699000001,0.0,1,G1,168.623,2.9327000000000014,46.073500000000024,11.0,1.0,0.0,2.0,2.0,58.0,1.0,0.0,0.0,1.0,17.07,70.99101778961223,2.957064034225712,268.0201725709103
A-1275,2-(phenoxymethyl)oxirane,"InChI=1S/C9H10O2/c1-2-4-8(5-3-1)10-6-9-7-11-9/h1-5,9H,6-7H2",FQYUMYWMJTYZTK-UHFFFAOYSA-N,C1OC1COc2ccccc2,-1.7963921827,0.0,1,G1,150.177,1.4641999999999997,41.67700000000003,11.0,2.0,0.0,2.0,3.0,58.0,1.0,1.0,1.0,2.0,21.759999999999998,65.74748876817132,1.8511911397161591,216.26415929370793
A-1276,nonanedioic acid,"InChI=1S/C9H16O4/c10-8(11)6-4-2-1-3-5-7-9(12)13/h1-7H2,(H,10,11)(H,12,13)",BDJRBEYXGGNYIS-UHFFFAOYSA-N,OC(=O)CCCCCCCC(O)=O,-1.8944614494,0.06276927529999998,2,G3,188.22299999999998,1.8863,47.59060000000003,13.0,2.0,2.0,4.0,8.0,76.0,0.0,0.0,0.0,0.0,74.6,77.570299647482,2.9961049979124525,146.99763683370963
A-1277,"1,6-dioxacycloheptadecan-7-one",InChI=1S/C15H28O3/c16-15-11-7-5-3-1-2-4-6-8-12-17-13-9-10-14-18-15/h1-14H2,MRMOPGVGWFNHIN-UHFFFAOYSA-N,O=C1CCCCCCCCCCOCCCCO1,-4.0179591997,0.0,1,G1,256.3859999999999,3.850900000000003,72.56500000000005,18.0,3.0,0.0,3.0,0.0,106.0,0.0,1.0,1.0,1.0,35.53,111.23122203491039,2.113694135690367,183.91539480971147
A-1280,"3,7-dimethyloctanal","InChI=1S/C10H20O/c1-9(2)5-4-6-10(3)7-8-11/h8-10H,4-7H2,1-3H3",UCSIFMPORANABL-UHFFFAOYSA-N,CC(C)CCCC(C)CC=O,-3.8064830067,0.0,1,G1,156.269,3.0378000000000016,48.53400000000003,11.0,1.0,0.0,1.0,6.0,66.0,0.0,0.0,0.0,0.0,17.07,70.18525215744279,3.1618337283000217,97.04589952780505
A-1286,"1,3-diphenylthiourea","InChI=1S/C13H12N2S/c16-13(14-11-7-3-1-4-8-11)15-12-9-5-2-6-10-12/h1-10H,(H2,14,15,16)",FCSHMCFRCYZTRQ-UHFFFAOYSA-N,S=C(Nc1ccccc1)Nc2ccccc2,-3.9716884266,0.01545424214097536,3,G5,228.32000000000002,3.4955000000000016,72.72740000000003,16.0,1.0,2.0,3.0,2.0,80.0,2.0,0.0,0.0,2.0,24.06,100.31194405437859,1.9521941477943936,410.3735146257326
A-1287,"estr-5(10)-ene-3,17-dione","InChI=1S/C18H24O2/c1-18-9-8-14-13-5-3-12(19)10-11(13)2-4-15(14)16(18)6-7-17(18)20/h14-16H,2-10H2,1H3/t14-,15-,16+,18+/m1/s1",RORYLAUXKSWMQL-CBZIJGRNSA-N,C[C@]12CC[C@H]3[C@@H](CCC4=C3CCC(=O)C4)[C@@H]1CCC2=O,-4.0549767292,0.009241702850000255,2,G3,272.388,3.841400000000003,77.17000000000004,20.0,2.0,0.0,2.0,0.0,108.0,0.0,2.0,4.0,4.0,34.14,120.55338352635827,1.6680257631301296,515.5112639294834
A-1288,1-bromopropane,"InChI=1S/C3H7Br/c1-2-3-4/h2-3H2,1H3",CYNYIHKIEHGYOZ-UHFFFAOYSA-N,CCCBr,-1.7107562487,0.014259393650167285,3,G5,122.993,1.7913000000000001,24.08499999999999,4.0,0.0,0.0,1.0,1.0,26.0,0.0,0.0,0.0,0.0,0.0,35.33668286226413,1.9747448713915894,5.245112497836532
A-1289,1-chloro-4-methoxybenzene,"InChI=1S/C7H7ClO/c1-9-7-4-2-6(8)3-5-7/h2-5H,1H3",YRGAYAGBVIXNAQ-UHFFFAOYSA-N,COc1ccc(Cl)cc1,-2.7793254939999996,0.0,1,G1,142.585,2.3486000000000002,38.00400000000001,9.0,1.0,0.0,2.0,1.0,48.0,1.0,0.0,0.0,1.0,9.23,59.213156690282126,2.881555877646136,180.61256853719752
A-1290,Fluocortolone,"InChI=1S/C22H29FO4/c1-11-6-14-13-8-16(23)15-7-12(25)4-5-21(15,2)20(13)17(26)9-22(14,3)19(11)18(27)10-24/h4-5,7,11,13-14,16-17,19-20,24,26H,6,8-10H2,1-3H3/t11-,13+,14+,16+,17+,19-,20-,21+,22+/m1/s1",GAKMQHDJQHZUTJ-ULHLPKEOSA-N,C[C@@H]1C[C@H]2[C@@H]3C[C@H](F)C4=CC(=O)C=C[C@]4(C)[C@H]3[C@@H](O)C[C@]2(C)[C@H]1C(=O)CO,-3.2037371554000003,0.06285880170227189,3,G5,376.4680000000002,2.6367000000000016,98.41460000000005,27.0,4.0,2.0,5.0,2.0,148.0,0.0,3.0,4.0,4.0,74.6,159.07755185907865,1.7725182385534795,742.5948094363654
A-1291,sodium 3-[(E)-2-[4-(phenylamino)phenyl]diazen-1-yl]benzene-1-sulfonate,"InChI=1S/C18H15N3O3S.Na/c22-25(23,24)18-8-4-7-17(13-18)21-20-16-11-9-15(10-12-16)19-14-5-2-1-3-6-14;/h1-13,19H,(H,22,23,24);/q;+1/p-1",NYGZLYXAPMMJTE-UHFFFAOYSA-M,[Na+].[O-][S](=O)(=O)c1cccc(c1)N=Nc2ccc(Nc3ccccc3)cc2,-1.2046860906,0.0,1,G1,375.38500000000005,1.7537000000000005,94.7479,26.0,6.0,1.0,8.0,5.0,126.0,3.0,0.0,0.0,3.0,93.95,173.58426719247467,2.429997336078026e-06,991.7046088096463
A-1292,"3-methyl-1,1-diphenylurea","InChI=1S/C14H14N2O/c1-15-14(17)16(12-8-4-2-5-9-12)13-10-6-3-7-11-13/h2-11H,1H3,(H,15,17)",IMFYAZJNDOZIFV-UHFFFAOYSA-N,CNC(=O)N(c1ccccc1)c2ccccc2,-2.9839461581999998,0.0,1,G1,226.27900000000002,3.1641000000000012,69.47870000000003,17.0,1.0,1.0,3.0,2.0,86.0,2.0,0.0,0.0,2.0,32.34,100.68959950820941,2.4314397275890385,442.5901008873748
A-1293,biphenyl-2-amine,"InChI=1S/C12H11N/c13-12-9-5-4-8-11(12)10-6-2-1-3-7-10/h1-9H,13H2",TWBPWBPGNQWFSJ-UHFFFAOYSA-N,Nc1ccccc1c2ccccc2,-2.8611137345,0.0,1,G1,169.227,2.9358000000000013,56.29040000000002,13.0,1.0,1.0,1.0,1.0,64.0,2.0,0.0,0.0,2.0,26.02,77.82838802257372,2.5360704460016144,392.8790477621569
A-1294,1-{[bis(2-chloroethoxy)phosphoryl]oxy}-2-({[bis(2-chloroethoxy)phosphoryl]oxy}methyl)-3-chloro-2-(chloromethyl)propane,"InChI=1S/C13H24Cl6O8P2/c14-1-5-22-28(20,23-6-2-15)26-11-13(9-18,10-19)12-27-29(21,24-7-3-16)25-8-4-17/h1-12H2",ZGHUDSLVQAGWEY-UHFFFAOYSA-N,ClCCO[P](=O)(OCCCl)OCC(CCl)(CCl)CO[P](=O)(OCCCl)OCCCl,-3.4001753552999996,0.0,1,G1,582.993,5.721400000000005,117.67800000000003,29.0,8.0,0.0,16.0,20.0,176.0,0.0,0.0,0.0,0.0,89.52000000000001,200.71864648787033,5.155587643894753,449.69593995862067
A-1295,"cyclohexane-1,4-dicarboxylic acid","InChI=1S/C8H12O4/c9-7(10)5-1-2-6(4-3-5)8(11)12/h5-6H,1-4H2,(H,9,10)(H,11,12)",PXGZQGDTEZPERC-UHFFFAOYSA-N,OC(=O)C1CCC(CC1)C(O)=O,-0.8723707236,0.0,1,G1,172.18,0.9620000000000002,40.71960000000001,12.0,2.0,2.0,4.0,2.0,68.0,0.0,1.0,1.0,1.0,74.6,70.19952637955613,2.3927770801931003,169.23454122869498
A-1298,2-(7-ethyl-1H-indol-3-yl)ethan-1-ol,"InChI=1S/C12H15NO/c1-2-9-4-3-5-11-10(6-7-14)8-13-12(9)11/h3-5,8,13-14H,2,6-7H2,1H3",UVSDNCAZVSQJQA-UHFFFAOYSA-N,CCc1cccc2c(CCO)c[nH]c12,-1.9153264103,0.0,1,G1,189.25799999999998,2.2650999999999994,58.46650000000003,14.0,1.0,2.0,2.0,3.0,74.0,2.0,0.0,0.0,2.0,36.019999999999996,83.5762302820289,2.572849270743661,430.8143917393495
A-1302,"3-(1-ethoxyethoxy)-3,7-dimethylocta-1,6-diene","InChI=1S/C14H26O2/c1-7-14(6,11-9-10-12(3)4)16-13(5)15-8-2/h7,10,13H,1,8-9,11H2,2-6H3",ZJPKYCLAROITRY-UHFFFAOYSA-N,CCOC(C)OC(C)(CCC=C(C)C)C=C,-3.9764017843,0.0,1,G1,226.35999999999996,4.0766000000000036,69.44000000000004,16.0,2.0,0.0,2.0,8.0,94.0,0.0,0.0,0.0,0.0,18.46,100.3313829096307,4.192440364597279,228.8898405799297
A-1304,diphenylmethanone,InChI=1S/C13H10O/c14-13(11-7-3-1-4-8-11)12-9-5-2-6-10-12/h1-10H,RWCCWEUUXYIKHB-UHFFFAOYSA-N,O=C(c1ccccc1)c2ccccc2,-3.882202908,0.37915145400000005,2,G3,182.222,2.917600000000001,56.316500000000026,14.0,1.0,0.0,1.0,2.0,68.0,2.0,0.0,0.0,2.0,17.07,83.01496154000138,2.348637604509715,376.003255415297
A-1305,1-cyclohexylethyl butanoate,"InChI=1S/C12H22O2/c1-3-7-12(13)14-10(2)11-8-5-4-6-9-11/h10-11H,3-9H2,1-2H3",FTMSYMOBBRINAR-UHFFFAOYSA-N,CCCC(=O)OC(C)C1CCCCC1,-3.9207588975,0.0,1,G1,198.3059999999999,3.2985000000000024,57.03700000000005,14.0,2.0,0.0,2.0,4.0,82.0,0.0,1.0,1.0,1.0,26.3,87.02285046221367,2.2485511215158516,171.16054269564708
A-1306,"2-ethyl-3-hydroxy-2-[2-(6-methoxy-3,4-dihydronaphthalen-1(2H)-ylidene)ethyl]cyclopentanone","InChI=1S/C20H26O3/c1-3-20(18(21)9-10-19(20)22)12-11-14-5-4-6-15-13-16(23-2)7-8-17(14)15/h7-8,11,13,18,21H,3-6,9-10,12H2,1-2H3",ZXYHLOFRRMDJAQ-UHFFFAOYSA-N,CCC1(CC=C2CCCc3cc(OC)ccc23)C(O)CCC1=O,-4.1227687236,0.0,1,G1,314.4250000000001,3.925200000000003,91.49780000000005,23.0,3.0,1.0,3.0,4.0,124.0,1.0,1.0,2.0,3.0,46.53,137.90862846355344,1.8836686658511983,631.7739987779305
A-1308,butylbenzene,"InChI=1S/C10H14/c1-3-9(2)10-7-5-4-6-8-10/h4-9H,3H2,1-2H3",ZJMWRROPUADPEA-UHFFFAOYSA-N,CCC(C)c1ccccc1,-3.7586078483999996,0.2643238784657511,7,G5,134.22199999999998,3.2001000000000017,45.14800000000003,10.0,0.0,0.0,0.0,2.0,54.0,1.0,0.0,0.0,1.0,0.0,62.89117157708339,2.746978188530898,176.48961548078339
A-1309,"sodium 1-amino-4-[(3-acetamidophenyl)amino]-9,10-dioxo-9,10-dihydroanthracene-2-sulfonate","InChI=1S/C22H17N3O6S.Na/c1-11(26)24-12-5-4-6-13(9-12)25-16-10-17(32(29,30)31)20(23)19-18(16)21(27)14-7-2-3-8-15(14)22(19)28;/h2-10,25H,23H2,1H3,(H,24,26)(H,29,30,31);/q;+1/p-1",MIBVDSFVCOIWCC-UHFFFAOYSA-M,[Na+].CC(=O)Nc1cccc(Nc2cc(c(N)c3C(=O)c4ccccc4C(=O)c23)[S]([O-])(=O)=O)c1,-4.3079108614,0.0548386730999999,2,G3,473.44200000000023,-0.3457000000000001,116.153,33.0,8.0,3.0,11.0,4.0,162.0,3.0,0.0,1.0,4.0,158.48999999999998,210.96574583279497,3.0624959939637974e-06,1436.0388499504463
A-1311,1-methyl-1-(4-methylcyclohex-3-en-1-yl)ethyl acetate,"InChI=1S/C12H20O2/c1-9-5-7-11(8-6-9)12(3,4)14-10(2)13/h5,11H,6-8H2,1-4H3",IGODOXYLBBXFDW-UHFFFAOYSA-N,CC(=O)OC(C)(C)C1CCC(=CC1)C,-3.931170339,0.0,1,G1,196.28999999999996,3.0745000000000013,56.94300000000004,14.0,2.0,0.0,2.0,2.0,80.0,0.0,0.0,1.0,1.0,26.3,86.3332474300294,2.5988300021762742,251.0473440169799
A-1312,"3,7,11-trimethyldodeca-1,6,10-trien-3-ol,mixed isomers","InChI=1S/C15H26O/c1-6-15(5,16)12-8-11-14(4)10-7-9-13(2)3/h6,9,11,16H,1,7-8,10,12H2,2-5H3/b14-11+",FQTLCLSUCSAZDY-SDNWHVSQSA-N,CC(C)=CCC\C(C)=C\CCC(C)(O)C=C,-3.9853522661,0.1062543616499998,2,G3,222.37199999999996,4.3963000000000045,72.47680000000004,16.0,1.0,1.0,1.0,7.0,92.0,0.0,0.0,0.0,0.0,20.23,100.5738652850253,3.8771138067004154,265.1595387832714
A-1313,6-[(2-methylprop-2-enoyl)oxy]hexyl 2-methylprop-2-enoate,"InChI=1S/C14H22O4/c1-11(2)13(15)17-9-7-5-6-8-10-18-14(16)12(3)4/h1,3,5-10H2,2,4H3",SAPGBCWOQLHKKZ-UHFFFAOYSA-N,CC(=C)C(=O)OCCCCCCOC(=O)C(C)=C,-4.0436629248000004,0.0,1,G1,254.32599999999994,2.785400000000001,70.01400000000004,18.0,4.0,0.0,4.0,9.0,102.0,0.0,0.0,0.0,0.0,52.6,108.65442710971826,3.3162010440941296,285.7556811171552
A-1315,4-(trifluoromethyl)aniline,"InChI=1S/C7H6F3N/c8-7(9,10)5-1-3-6(11)4-2-5/h1-4H,11H2",ODGIMMLDVSWADK-UHFFFAOYSA-N,Nc1ccc(cc1)C(F)(F)F,-2.8473301434,0.0,1,G1,161.12599999999998,2.2876000000000003,35.856400000000015,11.0,1.0,1.0,4.0,0.0,60.0,1.0,0.0,0.0,1.0,26.02,61.63284213968499,2.993754788259927,236.8577532761268
A-1317,benzyltriethylazanium chloride,"InChI=1S/C13H22N.ClH/c1-4-14(5-2,6-3)12-13-10-8-7-9-11-13;/h7-11H,4-6,12H2,1-3H3;1H/q+1;/p-1",HTZCNXWZYVXIMZ-UHFFFAOYSA-M,[Cl-].CC[N+](CC)(CC)Cc1ccccc1,-0.0072656636,0.22454626555,2,G3,227.77900000000002,0.06710000000000149,62.02940000000005,15.0,0.0,0.0,2.0,5.0,86.0,1.0,0.0,0.0,1.0,0.0,100.10889632962136,1.959999277600274e-06,246.23361737284745
A-1322,disodium decanedioate,"InChI=1S/C10H18O4.2Na/c11-9(12)7-5-3-1-2-4-6-8-10(13)14;;/h1-8H2,(H,11,12)(H,13,14);;/q;2*+1/p-2",NCXUIEDQTCQZRK-UHFFFAOYSA-L,[Na+].[Na+].[O-]C(=O)CCCCCCCCC([O-])=O,-3.0410647254,1.47408418085,2,G2,246.2139999999999,-6.384999999999998,46.950000000000024,16.0,4.0,0.0,6.0,9.0,82.0,0.0,0.0,0.0,0.0,80.25999999999999,140.7620410073025,-8.449997543000735e-07,165.65784284662087