ID,Name,InChI,InChIKey,SMILES,Solubility,SD,Ocurrences,Group,MolWt,MolLogP,MolMR,HeavyAtomCount,NumHAcceptors,NumHDonors,NumHeteroatoms,NumRotatableBonds,NumValenceElectrons,NumAromaticRings,NumSaturatedRings,NumAliphaticRings,RingCount,TPSA,LabuteASA,BalabanJ,BertzCT
A-1141,(3-phenoxyphenyl)methanol,"InChI=1S/C13H12O2/c14-10-11-5-4-8-13(9-11)15-12-6-2-1-3-7-12/h1-9,14H,10H2",KGANAERDZBAECK-UHFFFAOYSA-N,OCc1cccc(Oc2ccccc2)c1,-2.8258731416000002,0.04168658535000036,2,G3,200.23700000000002,2.9712000000000005,58.880800000000036,15.0,2.0,1.0,2.0,3.0,76.0,2.0,0.0,0.0,2.0,29.46,88.7612184216605,2.1735976283693983,423.56090337132014
A-1143,azacyclotridecan-2-one,"InChI=1S/C12H23NO/c14-12-10-8-6-4-2-1-3-5-7-9-11-13-12/h1-11H2,(H,13,14)",JHWNWJKBPDFINM-UHFFFAOYSA-N,O=C1CCCCCCCCCCCN1,-2.8195043204,0.1650447711384221,4,G5,197.32199999999997,3.0172000000000008,59.17970000000005,14.0,1.0,1.0,2.0,0.0,82.0,0.0,1.0,1.0,1.0,29.1,87.45916741631484,2.1473851382465647,140.40071895207583
A-1144,methyl 3-phenylacrylate,"InChI=1S/C10H10O2/c1-12-10(11)8-7-9-5-3-2-4-6-9/h2-8H,1H3/b8-7+",CCRCUPLGCSFEDV-BQYQJAHWSA-N,COC(=O)\C=C\c1ccccc1,-2.7343475301,0.03576321108682507,3,G5,162.188,1.8728,47.492000000000026,12.0,2.0,0.0,2.0,2.0,62.0,1.0,0.0,0.0,1.0,26.3,71.47663587444978,2.637870167687777,275.14987048988627
A-1145,"2-methyl-4,6-bis(methylsulfanyl)benzene-1,3-diamine; 4-methyl-2,6-bis(methylsulfanyl)benzene-1,3-diamine","InChI=1S/C9H14N2S2/c1-5-8(10)6(12-2)4-7(13-3)9(5)11/h4H,10-11H2,1-3H3",TXDBDYPHJXUHEO-UHFFFAOYSA-N,CSc1cc(SC)c(N)c(C)c1N,-2.8569254582999997,0.13235062474999992,2,G3,214.35899999999995,2.6032200000000003,63.56580000000001,13.0,4.0,2.0,4.0,2.0,72.0,1.0,0.0,0.0,1.0,52.04,87.4522309074427,3.3617208875512854,295.6310072666452
A-1148,"4-allyl-1,2-dimethoxybenzene","InChI=1S/C11H14O2/c1-4-5-9-6-7-10(12-2)11(8-9)13-3/h4-8H,1-3H3/b5-4+",NNWHUJCUHAELCL-SNAWJCMRSA-N,COc1ccc(\C=C\C)cc1OC,-2.7782267945,0.0,1,G1,178.23099999999997,2.736900000000001,54.25400000000003,13.0,2.0,0.0,2.0,3.0,70.0,1.0,0.0,0.0,1.0,18.46,78.7936011183095,3.050120428414819,302.9586304882723
A-1149,2-methylquinolin-8-ol,"InChI=1S/C10H9NO/c1-7-5-6-8-3-2-4-9(12)10(8)11-7/h2-6,12H,1H3",NBYLBWHHTUWMER-UHFFFAOYSA-N,Cc1ccc2cccc(O)c2n1,-1.7306186153,0.0,1,G1,159.188,2.2488200000000007,48.144800000000025,12.0,2.0,1.0,2.0,0.0,60.0,2.0,0.0,0.0,2.0,33.120000000000005,70.4918914987713,2.8771445584268402,423.10813525322834
A-1152,cobalt(2+) bis[3-(3-ethylcyclopentyl)propanoate],"InChI=1S/2C10H18O2.Co/c2*1-2-8-3-4-9(7-8)5-6-10(11)12;/h2*8-9H,2-7H2,1H3,(H,11,12);/q;;+2/p-2",XSWKLHINRKWMTD-UHFFFAOYSA-L,[Co++].CCC1CCC(CCC([O-])=O)C1.CCC2CCC(CCC([O-])=O)C2,-3.1323831913999998,0.0,1,G1,397.4210000000002,2.6831000000000005,90.72600000000007,25.0,4.0,0.0,5.0,8.0,147.0,0.0,2.0,2.0,2.0,80.25999999999999,162.898865233778,4.4307691130414236e-07,349.8924429504674
A-1153,"3-[2,2-dimethyl-3-(3-prop-2-enoyloxypropoxy)propoxy]propyl prop-2-enoate","InChI=1S/C17H28O6/c1-5-15(18)22-11-7-9-20-13-17(3,4)14-21-10-8-12-23-16(19)6-2/h5-6H,1-2,7-14H2,3-4H3",NQGDHQASSFDDLD-UHFFFAOYSA-N,CC(C)(COCCCOC(=O)C=C)COCCCOC(=O)C=C,-3.0495421403,0.0,1,G1,328.4050000000001,2.2844000000000007,86.96500000000005,23.0,6.0,0.0,6.0,14.0,132.0,0.0,0.0,0.0,0.0,71.06,137.97634391192184,3.532312207893033,341.2798817875751
A-1154,pentyl formate,"InChI=1S/C6H12O2/c1-2-3-4-5-8-6-7/h6H,2-5H2,1H3",DIQMPQMYFZXDAX-UHFFFAOYSA-N,CCCCCOC=O,-1.6020599913,0.0,1,G1,116.15999999999998,1.3496,31.540999999999983,8.0,2.0,0.0,2.0,5.0,48.0,0.0,0.0,0.0,0.0,26.3,49.83902892936323,2.616293090417985,52.49022499567306
A-1155,"1,3-dimethyl benzene-1,3-dicarboxylate","InChI=1S/C10H10O4/c1-13-9(11)7-4-3-5-8(6-7)10(12)14-2/h3-6H,1-2H3",VNGOYPQMJFJDLV-UHFFFAOYSA-N,COC(=O)c1cccc(c1)C(=O)OC,-2.825819918,0.0,1,G1,194.18599999999998,1.2597999999999998,49.12100000000002,14.0,4.0,0.0,4.0,2.0,74.0,1.0,0.0,0.0,1.0,52.60000000000001,81.44130623618467,3.006336626481918,325.6445603891669
A-1156,ethenylbenzene,"InChI=1S/C8H8/c1-2-8-6-4-3-5-7-8/h2-7H,1H2",PPBRXRYQALVLMV-UHFFFAOYSA-N,C=Cc1ccccc1,-2.5552696161000004,0.10480842972924342,7,G5,104.15199999999997,2.3296,36.53300000000001,8.0,0.0,0.0,0.0,1.0,40.0,1.0,0.0,0.0,1.0,0.0,49.47168431610592,2.9910469146846212,162.65300142116237
A-1157,hexyl 2-methylprop-2-enoate,"InChI=1S/C10H18O2/c1-4-5-6-7-8-12-10(11)9(2)3/h2,4-8H2,1,3H3",LNCPIMCVTKXXOY-UHFFFAOYSA-N,CCCCCCOC(=O)C(C)=C,-3.7554210341000003,0.0,1,G1,170.25199999999998,2.686000000000001,49.91500000000003,12.0,2.0,0.0,2.0,6.0,70.0,0.0,0.0,0.0,0.0,26.3,74.6091943547654,3.1997873837276596,149.9175691117035
A-1158,"2,3,5,6-tetrachloropyridine",InChI=1S/C5HCl4N/c6-2-1-3(7)5(9)10-4(2)8/h1H,FATBKZJZAHWCSL-UHFFFAOYSA-N,Clc1cc(Cl)c(Cl)nc1Cl,-3.8614246907,0.06034518980000003,2,G3,216.882,3.6952,44.277,10.0,1.0,0.0,5.0,0.0,54.0,1.0,0.0,0.0,1.0,12.89,77.86411600797017,3.2824629074535228,209.82001790212001
A-1160,"4-naphthalen-2-yl-1,3-thiazol-2-amine","InChI=1S/C13H10N2S/c14-13-15-12(8-16-13)11-6-5-9-3-1-2-4-10(9)7-11/h1-8H,(H2,14,15)",GWDNDNTTXIIXRS-UHFFFAOYSA-N,Nc1scc(n1)c2ccc3ccccc3c2,-4.849542252,0.0,1,G1,226.304,3.5455000000000014,69.46840000000002,16.0,3.0,1.0,3.0,1.0,78.0,3.0,0.0,0.0,3.0,38.91,97.37006380566693,2.1815432861871678,642.982566625244
A-1161,2-benzylheptan-1-ol,"InChI=1S/C14H22O/c1-2-3-5-10-14(12-15)11-13-8-6-4-7-9-13/h4,6-9,14-15H,2-3,5,10-12H2,1H3",CGMOOAUESLSUKM-UHFFFAOYSA-N,CCCCCC(CO)Cc1ccccc1,-3.8432685623,0.0,1,G1,206.329,3.417900000000002,64.86380000000005,15.0,1.0,1.0,1.0,7.0,84.0,1.0,0.0,0.0,1.0,20.23,93.14517378686587,2.331616495458083,242.77542995949494
A-1163,decanal,"InChI=1S/C10H20O/c1-2-3-4-5-6-7-8-9-10-11/h10H,2-9H2,1H3",KSMVZQYAVGTKIV-UHFFFAOYSA-N,CCCCCCCCCC=O,-3.7255255026,0.0,1,G1,156.269,3.3260000000000023,48.67400000000003,11.0,1.0,0.0,1.0,8.0,66.0,0.0,0.0,0.0,0.0,17.07,70.1852521574428,2.7376715685719475,78.9419624661572
A-1165,"(2E)-3,7-dimethylocta-2,6-dien-1-yl acetate","InChI=1S/C12H20O2/c1-10(2)6-5-7-11(3)8-9-14-12(4)13/h6,8H,5,7,9H2,1-4H3/b11-8+",HIGQPQRQIQDZMP-DHZHZOJOSA-N,CC(=O)OC/C=C(C)/CCC=C(C)C,-3.8305001771,0.0,1,G1,196.29,3.242200000000002,59.05500000000004,14.0,2.0,0.0,2.0,5.0,80.0,0.0,0.0,0.0,0.0,26.3,86.64947555137438,3.670448527133007,232.70628424348942
A-1167,"4,8-dimethyldeca-4,9-dienal","InChI=1S/C12H20O/c1-4-11(2)7-5-8-12(3)9-6-10-13/h4,8,10-11H,1,5-7,9H2,2-3H3/b12-8+",QVEOSYKPYFNQAZ-XYOKQWHBSA-N,CC(CC/C=C(C)/CCC=O)C=C,-3.7935760497000004,0.0,1,G1,180.291,3.5141000000000027,57.65000000000004,13.0,1.0,0.0,1.0,7.0,74.0,0.0,0.0,0.0,0.0,17.07,81.53593032186751,3.570770385643759,179.56349808388828
A-1168,"methyl 2,2,2-trifluoroacetate","InChI=1S/C3H3F3O2/c1-8-2(7)3(4,5)6/h1H3",VMVNZNXAVJHNDJ-UHFFFAOYSA-N,COC(=O)C(F)(F)F,-0.6479837034,0.0,1,G1,128.049,0.7216999999999999,18.070999999999998,8.0,2.0,0.0,5.0,0.0,48.0,0.0,0.0,0.0,0.0,26.3,43.240808794952116,3.823378455220923,95.19188266301451
A-1170,3-ethoxy-4-hydroxybenzaldehyde,"InChI=1S/C9H10O3/c1-2-12-9-5-7(6-10)3-4-8(9)11/h3-6,11H,2H2,1H3",CBOQJANXLMLOSS-UHFFFAOYSA-N,CCOc1cc(C=O)ccc1O,-1.7642022678,0.0,1,G1,166.176,1.6034,44.66330000000002,12.0,3.0,1.0,3.0,3.0,64.0,1.0,0.0,0.0,1.0,46.53,70.59553054443344,2.9880700814121135,281.102178757748
A-1172,4-phenylbutan-2-one,"InChI=1S/C10H12O/c1-9(11)7-8-10-5-3-2-4-6-10/h2-6H,7-8H2,1H3",AKGGYBADQZYZPD-UHFFFAOYSA-N,CC(=O)CCc1ccccc1,-1.7160179957,0.0,1,G1,148.20499999999998,2.2081999999999997,45.44400000000003,11.0,1.0,0.0,1.0,3.0,58.0,1.0,0.0,0.0,1.0,17.07,67.05269367712717,2.453018743531937,225.88790998034068
A-1173,"N-(4-chloro-2,5-dimethoxyphenyl)-3-oxobutanamide","InChI=1S/C12H14ClNO4/c1-7(15)4-12(16)14-9-6-10(17-2)8(13)5-11(9)18-3/h5-6H,4H2,1-3H3,(H,14,16)",MOUVJGIRLPZEES-UHFFFAOYSA-N,COc1cc(NC(=O)CC(C)=O)c(OC)cc1Cl,-2.9792447783999996,0.0,1,G1,271.7,2.2748,68.48370000000003,18.0,4.0,1.0,6.0,5.0,98.0,1.0,0.0,0.0,1.0,64.63,110.02431887546761,2.9903385951462527,473.39036914788875
A-1174,3-phenylprop-2-en-1-yl acetate,"InChI=1S/C11H12O2/c1-10(12)13-9-5-8-11-6-3-2-4-7-11/h2-8H,9H2,1H3/b8-5+",WJSDHUCWMSHDCR-VMPITWQZSA-N,CC(=O)OC\C=C\c1ccccc1,-2.7927245342,0.021112998749999834,2,G3,176.215,2.2629,52.10900000000003,13.0,2.0,0.0,2.0,3.0,68.0,1.0,0.0,0.0,1.0,26.3,77.84157798884641,2.3677193200379056,288.21840549259923
A-1177,"[2-[2-oxo-5-(2,4,4-trimethylpentan-2-yl)-3H-1-benzofuran-3-yl]-4-(2,4,4-trimethylpentan-2-yl)phenyl] acetate","InChI=1S/C32H44O4/c1-20(33)35-25-14-12-21(31(8,9)18-29(2,3)4)16-23(25)27-24-17-22(13-15-26(24)36-28(27)34)32(10,11)19-30(5,6)7/h12-17,27H,18-19H2,1-11H3",UHPDROGOQWZCNC-UHFFFAOYSA-N,CC(=O)Oc1ccc(cc1C2C(=O)Oc3ccc(cc23)C(C)(C)CC(C)(C)C)C(C)(C)CC(C)(C)C,-6.6925825623,0.0,1,G1,492.70000000000044,8.090400000000008,145.86699999999985,36.0,4.0,0.0,4.0,6.0,196.0,2.0,0.0,1.0,3.0,52.60000000000001,217.3316431190653,2.1562514457235435,1155.6536889336185
A-1179,2-hydroxypropanoic acid - 5-{[(2-ethylhexyl)carbamoyl]oxy}-2-methylphenyl [2-(dimethylamino)ethyl]carbamate (1:1) (non-preferred name),"InChI=1S/C21H35N3O4.C3H6O3/c1-6-8-9-17(7-2)15-28-20(25)22-18-11-10-16(3)19(14-18)23-21(26)27-13-12-24(4)5;1-2(4)3(5)6/h10-11,14,17H,6-9,12-13,15H2,1-5H3,(H,22,25)(H,23,26);2,4H,1H3,(H,5,6)",HYNJGJWCXRMUIG-UHFFFAOYSA-N,CCCCC(CC)COC(=O)Nc1ccc(C)c(NC(=O)OCCN(C)C)c1.CC(O)C(O)=O,-0.2351938248,0.0,1,G1,483.6060000000003,4.321820000000003,132.29700000000008,34.0,7.0,4.0,10.0,12.0,194.0,1.0,0.0,0.0,1.0,137.43,202.1658746331217,1.598928155187427e-06,754.0821649968749
A-1181,"2,6-dimethyloctan-2-ol","InChI=1S/C10H22O/c1-5-9(2)7-6-8-10(3,4)11/h9,11H,5-8H2,1-4H3",WRFXXJKURVTLSY-UHFFFAOYSA-N,CCC(C)CCCC(C)(C)O,-2.7493446847000005,0.0,1,G1,158.285,2.9737000000000022,49.60380000000003,11.0,1.0,1.0,1.0,5.0,68.0,0.0,0.0,0.0,0.0,20.23,70.81796380959504,3.275716275334584,91.53612452347811
A-1182,troclosene sodium,"InChI=1S/C3HCl2N3O3.Na/c4-7-1(9)6-2(10)8(5)3(7)11;/h(H,6,9,10);/q;+1/p-1",MSFGZHUJTJBYFA-UHFFFAOYSA-M,[Na+].ClN1C(=O)[N-]C(=O)N(Cl)C1=O,-0.8951600114,0.5079347501488933,4,G4,219.947,-4.6648000000000005,37.053999999999995,12.0,5.0,0.0,9.0,0.0,60.0,1.0,0.0,0.0,1.0,75.17,97.23813007723979,1.2099998083250311e-06,408.0820243615061
A-1185,3-amino-4-hydroxybenzene-1-sulfonic acid,"InChI=1S/C6H7NO4S/c7-5-3-4(12(9,10)11)1-2-6(5)8/h1-3,8H,7H2,(H,9,10,11)",ULUIMLJNTCECJU-UHFFFAOYSA-N,Nc1cc(ccc1O)[S](O)(=O)=O,-1.8297447369,0.0,1,G1,189.19199999999998,0.22109999999999996,42.333800000000004,12.0,4.0,3.0,6.0,1.0,66.0,1.0,0.0,0.0,1.0,100.62,69.19416357874631,3.327295999016508,398.0091542968489
A-1186,"11,17,21-trihydroxypregn-4-ene-3,20-dione","InChI=1S/C21H30O5/c1-19-7-5-13(23)9-12(19)3-4-14-15-6-8-21(26,17(25)11-22)20(15,2)10-16(24)18(14)19/h9,14-16,18,22,24,26H,3-8,10-11H2,1-2H3/t14-,15-,16-,18+,19-,20-,21-/m0/s1",JYGXADMDTFJGBT-VWUMJDOOSA-N,C[C@]12CCC(=O)C=C1CC[C@H]3[C@@H]4CC[C@](O)(C(=O)CO)[C@@]4(C)C[C@H](O)[C@H]23,-3.1121092438,0.02900462189999997,2,G3,362.4660000000001,1.7815999999999999,95.14240000000004,26.0,5.0,3.0,5.0,2.0,144.0,0.0,3.0,4.0,4.0,94.83,154.03091112613612,1.7350832012021693,683.8889217536757
A-1188,octadec-9-enoic acid - 2-aminoethanol (1:1),"InChI=1S/C18H34O2.C2H7NO/c1-2-3-4-5-6-7-8-9-10-11-12-13-14-15-16-17-18(19)20;3-1-2-4/h9-10H,2-8,11-17H2,1H3,(H,19,20);4H,1-3H2/b10-9+;",KGWDUNBJIMUFAP-RRABGKBLSA-N,CCCCCCCC/C=C/CCCCCCCC(O)=O.NCCO,-3.0888344498,0.0,1,G1,343.552,5.045900000000004,103.22800000000007,24.0,3.0,3.0,4.0,16.0,144.0,0.0,0.0,0.0,0.0,83.55,149.07925962415862,0.0,265.60957573422434
A-1193,"2-methyl-4-(2,2,3-trimethylcyclopent-3-en-1-yl)butan-1-ol","InChI=1S/C13H24O/c1-10(9-14)5-7-12-8-6-11(2)13(12,3)4/h6,10,12,14H,5,7-9H2,1-4H3",CYVGAJHMMVDTDZ-UHFFFAOYSA-N,CC(CO)CCC1CC=C(C)C1(C)C,-3.8427464064,0.0,1,G1,196.33399999999997,3.387400000000002,61.12880000000005,14.0,1.0,1.0,1.0,4.0,82.0,0.0,0.0,1.0,1.0,20.23,88.21735596707137,2.4143102652708763,215.2754526075878
A-1196,"N,N-dimethyldodecanamide","InChI=1S/C14H29NO/c1-4-5-6-7-8-9-10-11-12-13-14(16)15(2)3/h4-13H2,1-3H3",BDYUSDIJIDGWCY-UHFFFAOYSA-N,CCCCCCCCCCCC(=O)N(C)C,-3.9093070505000003,0.0,1,G1,227.39199999999997,3.9955000000000034,70.53800000000005,16.0,1.0,0.0,2.0,10.0,96.0,0.0,0.0,0.0,0.0,20.310000000000002,101.40485428523262,3.06855151382054,166.11827660204978
A-1197,4-tert-butylcyclohexan-1-ol,"InChI=1S/C10H20O/c1-10(2,3)8-4-6-9(11)7-5-8/h8-9,11H,4-7H2,1-3H3",CCOQPGVQAWPUPE-UHFFFAOYSA-N,CC(C)(C)C1CCC(O)CC1,-3.1032621251999997,0.1690260899143181,4,G5,156.26899999999995,2.5836000000000006,47.41980000000002,11.0,1.0,1.0,1.0,0.0,66.0,0.0,1.0,1.0,1.0,20.23,69.8121326560658,2.3936150485089414,115.3246918518097
A-1199,"N,N-dimethyltetradecan-1-amine","InChI=1S/C16H35N/c1-4-5-6-7-8-9-10-11-12-13-14-15-16-17(2)3/h4-16H2,1-3H3",SFBHPFQSSDCYSL-UHFFFAOYSA-N,CCCCCCCCCCCCCCN(C)C,-3.9356925607999997,0.0,1,G1,241.46299999999994,5.249100000000005,79.63200000000008,17.0,1.0,0.0,1.0,13.0,104.0,0.0,0.0,0.0,0.0,3.24,109.97321641398206,2.892588645622117,131.48686830125578
A-1203,1-chloropropane,"InChI=1S/C3H7Cl/c1-2-3-4/h2-3H2,1H3",SNMVRZFUUCLYTO-UHFFFAOYSA-N,CCCCl,-1.4534068203,1.4125415843129687,3,G4,78.542,1.6352,21.010999999999996,4.0,0.0,0.0,1.0,1.0,26.0,0.0,0.0,0.0,0.0,0.0,31.772401483504435,1.9747448713915894,5.245112497836532
A-1204,"Phosphorodithioic acid, mixed O,O-bis(1,3-dimethylbutyl and iso-Pr) esters, zinc salts","InChI=1S/2C9H21O2PS2.Zn/c2*1-7(2)6-9(5)11-12(13,14)10-8(3)4;/h2*7-9H,6H2,1-5H3,(H,13,14);/q;;+2/p-2",ZLJYMIJYVMPKAH-UHFFFAOYSA-L,[Zn++].CC(C)CC(C)O[P]([S-])(=S)OC(C)C.CC(C)CC(C)O[P]([S-])(=S)OC(C)C,-2.3189749133,0.0,1,G1,576.1200000000001,7.265500000000007,135.74599999999995,29.0,8.0,0.0,11.0,12.0,172.0,0.0,0.0,0.0,0.0,36.92,213.68042534990545,-4.506666535511115e-07,464.25278127282013
A-1205,1-chloro-3-nitrobenzene,InChI=1S/C6H4ClNO2/c7-5-2-1-3-6(4-5)8(9)10/h1-4H,KMAQZIILEGKYQZ-UHFFFAOYSA-N,[O-][N+](=O)c1cccc(Cl)c1,-2.7612722995,0.07745098000000006,2,G3,157.55599999999998,2.2482000000000006,38.106400000000015,10.0,2.0,0.0,4.0,1.0,52.0,1.0,0.0,0.0,1.0,43.14,62.387645068878435,3.069899265759275,261.67965837655686
A-1206,1-(2-naphthyl)ethanone,"InChI=1S/C12H10O/c1-9(13)11-7-6-10-4-2-3-5-12(10)8-11/h2-8H,1H3",XSAYZAUNJMRRIR-UHFFFAOYSA-N,CC(=O)c1ccc2ccccc2c1,-2.7964187192,0.0,1,G1,170.21099999999998,3.0424000000000015,53.95250000000002,13.0,1.0,0.0,1.0,1.0,64.0,2.0,0.0,0.0,2.0,17.07,77.00447398006915,2.6860346638769905,457.3860595287063
A-1207,"disodium 4-amino-6-{2-[4-({4-[2-(2,4-diaminophenyl)diazen-1-yl]phenyl}sulfamoyl)phenyl]diazen-1-yl}-5-hydroxy-3-[2-(4-nitrophenyl)diazen-1-yl]naphthalene-2,7-disulfonate","InChI=1S/C34H27N11O11S3.2Na/c35-19-1-14-27(26(36)17-19)41-38-20-2-4-23(5-3-20)44-57(49,50)25-12-8-22(9-13-25)40-43-33-29(59(54,55)56)16-18-15-28(58(51,52)53)32(31(37)30(18)34(33)46)42-39-21-6-10-24(11-7-21)45(47)48;;/h1-17,44,46H,35-37H2,(H,51,52,53)(H,54,55,56);;/q;2*+1/p-2",UMXKOPCQCFDBHS-UHFFFAOYSA-L,[Na+].[Na+].Nc1ccc(N=Nc2ccc(N[S](=O)(=O)c3ccc(cc3)N=Nc4c(O)c5c(N)c(N=Nc6ccc(cc6)[N+]([O-])=O)c(cc5cc4[S]([O-])(=O)=O)[S]([O-])(=O)=O)cc2)c(N)c1,-0.5256786207,0.0,1,G1,905.8210000000003,1.063400000000003,210.53529999999986,61.0,20.0,5.0,27.0,12.0,302.0,6.0,0.0,0.0,6.0,376.15999999999997,389.5433689162176,4.095990229517898e-06,3103.8412989430653
A-1209,"1,2-dichloropropane","InChI=1S/C3H6Cl2/c1-3(5)2-4/h3H,2H2,1H3",KNKRKFALVUDBJE-UHFFFAOYSA-N,CC(Cl)CCl,-1.6216647134,0.007897133599999995,2,G3,112.98700000000001,1.8525,26.03499999999999,5.0,0.0,0.0,2.0,1.0,32.0,0.0,0.0,0.0,0.0,0.0,42.07566771038611,2.5395388613593903,18.854752972273346
A-1211,N-ethylaniline,"InChI=1S/C8H11N/c1-2-9-8-6-4-3-5-7-8/h3-7,9H,2H2,1H3",OJGMBLNIHDZDGS-UHFFFAOYSA-N,CCNc1ccccc1,-1.6520779355000001,0.024673360799999933,2,G3,121.18299999999995,2.1184,40.60570000000001,9.0,1.0,1.0,1.0,2.0,48.0,1.0,0.0,0.0,1.0,12.03,55.71114953189822,2.61489994009295,157.4784207656209
A-1212,"1,1'-oxybis(3-methylbutane)","InChI=1S/C10H22O/c1-9(2)5-7-11-8-6-10(3)4/h9-10H,5-8H2,1-4H3",AQZGPSLYZOOYQP-UHFFFAOYSA-N,CC(C)CCOCCC(C)C,-3.7601070667000003,0.4308535333500001,2,G3,158.285,3.095200000000002,49.72900000000003,11.0,1.0,0.0,1.0,6.0,68.0,0.0,0.0,0.0,0.0,9.23,71.13727528690589,2.909205095488745,66.9419624661572
A-1213,sodium 2-({2-amino-8-hydroxy-6-[(2-methylphenyl)sulfamoyl]-1-naphthyl}diazenyl)-5-[(chloroacetyl)amino]benzenesulfonate,"InChI=1S/C25H22ClN5O7S2.Na/c1-31(17-5-3-2-4-6-17)39(34,35)18-11-15-7-9-19(27)25(24(15)21(32)13-18)30-29-20-10-8-16(28-23(33)14-26)12-22(20)40(36,37)38;/h2-13,27,29-30H,14H2,1H3,(H,28,33)(H,36,37,38);/q;+1/p-1",NVRGYEUIJNZYKB-UHFFFAOYSA-M,[Na+].CN(c1ccccc1)[S](=O)(=O)C2=CC(=O)C3=C(NNc4ccc(NC(=O)CCl)cc4[S]([O-])(=O)=O)C(=N)C=CC3=C2,-4.3588570696,0.0,1,G1,626.0480000000001,-0.6086299999999971,149.34379999999987,41.0,10.0,4.0,16.0,9.0,208.0,2.0,0.0,2.0,4.0,188.66,262.95669956958557,4.622489256296882e-06,1770.0957113200316
A-1214,"1,2-dichloro-4-methylbenzene","InChI=1S/C7H6Cl2/c1-5-2-3-6(8)7(9)4-5/h2-4H,1H3",WYUIWKFIFOJVKW-UHFFFAOYSA-N,Cc1ccc(Cl)c(Cl)c1,-3.7755457257,0.008177137150000124,2,G3,161.031,3.301820000000001,41.19900000000002,9.0,0.0,0.0,2.0,0.0,48.0,1.0,0.0,0.0,1.0,0.0,64.40287768765691,3.1716780304409156,218.15617759993404
A-1215,"4-amino-2,5-dimethoxy-N-phenylbenzenesulfonamide","InChI=1S/C14H16N2O4S/c1-19-12-9-14(13(20-2)8-11(12)15)21(17,18)16-10-6-4-3-5-7-10/h3-9,16H,15H2,1-2H3",NFYQAEPHDGXJSY-UHFFFAOYSA-N,COc1cc(c(OC)cc1N)[S](=O)(=O)Nc2ccccc2,-4.0576928644,0.0,1,G1,308.359,2.0868,81.20890000000003,21.0,5.0,2.0,7.0,5.0,112.0,2.0,0.0,0.0,2.0,90.65,123.09600078640382,2.483415009646832,730.1392691161423
A-1219,4-hydroxy-3-(3-oxo-1-phenylbutyl)-2H-chromen-2-one,"InChI=1S/C19H16O4/c1-12(20)11-15(13-7-3-2-4-8-13)17-18(21)14-9-5-6-10-16(14)23-19(17)22/h2-10,15,22H,11H2,1H3",QTXVAVXCBMYBJW-UHFFFAOYSA-N,CC(=O)CC(c1ccccc1)C2=C(O)Oc3ccccc3C2=O,-3.0625087471,1.589309613426241,4,G4,308.333,3.609600000000002,87.73180000000005,23.0,4.0,1.0,4.0,4.0,116.0,3.0,0.0,0.0,3.0,67.50999999999999,132.5520250911752,2.2586253240211427,909.550972694472
A-1220,"(4-(4-aminophenyl)(4-iminocyclohexa-2,5-dienylidene)methyl)-2-methylaniline hydrochloride","InChI=1S/C20H19N3.ClH/c1-13-12-16(6-11-19(13)23)20(14-2-7-17(21)8-3-14)15-4-9-18(22)10-5-15;/h2-12,23H,21-22H2,1H3;1H",AXDJCCTWPBKUKL-UHFFFAOYSA-N,[H+].[Cl-].CC1=CC(C=CC1=N)=C(c2ccc(N)cc2)c3ccc(N)cc3,-2.1054831912,0.2524519297430859,3,G5,337.85400000000004,1.3052699999999988,99.46650000000001,24.0,3.0,3.0,4.0,2.0,122.0,2.0,0.0,1.0,3.0,75.89,149.33641800598704,1.5624994300002157e-06,800.0149337345614
A-1222,tris(2-methylpropyl) phosphate,"InChI=1S/C12H27O4P/c1-10(2)7-14-17(13,15-8-11(3)4)16-9-12(5)6/h10-12H,7-9H2,1-6H3",HRKAMJBPFPHCSD-UHFFFAOYSA-N,CC(C)CO[P](=O)(OCC(C)C)OCC(C)C,-3.0021546468,0.0,1,G1,266.318,4.112300000000004,69.97650000000006,17.0,4.0,0.0,5.0,9.0,104.0,0.0,0.0,0.0,0.0,44.760000000000005,105.64386064918794,4.291086823121421,200.62102776403037
A-1225,methyl 2-methylbenzoate,"InChI=1S/C9H10O2/c1-7-5-3-4-6-8(7)9(10)11-2/h3-6H,1-2H3",WVWZECQNFWFVFW-UHFFFAOYSA-N,COC(=O)c1ccccc1C,-1.7566476759,0.0,1,G1,150.17699999999996,1.78162,42.518500000000024,11.0,2.0,0.0,2.0,1.0,58.0,1.0,0.0,0.0,1.0,26.3,65.80129679223742,3.0326621558006566,266.0201725709103
A-1226,2-methylprop-1-ene,"InChI=1S/C4H8/c1-4(2)3/h1H2,2-3H3",VQTUBCCKSQIDNK-UHFFFAOYSA-N,CC(C)=C,-2.3290690398,0.0,1,G1,56.108,1.5824,20.487999999999996,4.0,0.0,0.0,0.0,0.0,24.0,0.0,0.0,0.0,0.0,0.0,27.14447433883512,2.8030394876740514,23.019550008653873
A-1227,1-(acetyloxy)but-3-en-2-yl acetate,"InChI=1S/C8H12O4/c1-4-8(12-7(3)10)5-11-6(2)9/h4,8H,1,5H2,2-3H3/t8-/m0/s1",MWWXARALRVYLAE-QMMMGPOBSA-N,CC(=O)OC[C@@H](OC(C)=O)C=C,-0.8176814122,0.0,1,G1,172.17999999999998,0.6672,42.384000000000015,12.0,4.0,0.0,4.0,4.0,68.0,0.0,0.0,0.0,0.0,52.6,71.15437745552283,3.7486580781089165,185.4968817653618
A-1228,3-aminophenol,"InChI=1S/C6H7NO/c7-5-2-1-3-6(8)4-5/h1-4,8H,7H2",CWLKGDAVCFYWJK-UHFFFAOYSA-N,Nc1cccc(O)c1,-0.6229628479,0.061430749649284674,5,G5,109.12799999999999,0.9743999999999999,32.5192,8.0,2.0,2.0,2.0,0.0,42.0,1.0,0.0,0.0,1.0,46.25,47.56552756870569,3.077660437970554,168.38833891467198