ID,Name,InChI,InChIKey,SMILES,Solubility,SD,Ocurrences,Group,MolWt,MolLogP,MolMR,HeavyAtomCount,NumHAcceptors,NumHDonors,NumHeteroatoms,NumRotatableBonds,NumValenceElectrons,NumAromaticRings,NumSaturatedRings,NumAliphaticRings,RingCount,TPSA,LabuteASA,BalabanJ,BertzCT
A-1069,"tetrasodium (6Z)-4-acetamido-5-oxo-6-(2-{7-sulfonato-4-[(E)-2-(4-sulfonatophenyl)diazen-1-yl]naphthalen-1-yl}hydrazin-1-ylidene)-5,6-dihydronaphthalene-1,7-disulfonate","InChI=1S/C28H21N5O14S4.4Na/c1-14(34)29-23-10-11-24(50(42,43)44)20-13-25(51(45,46)47)27(28(35)26(20)23)33-32-22-9-8-21(18-7-6-17(12-19(18)22)49(39,40)41)31-30-15-2-4-16(5-3-15)48(36,37)38;;;;/h2-13,32H,1H3,(H,29,34)(H,36,37,38)(H,39,40,41)(H,42,43,44)(H,45,46,47);;;;/q;4*+1/p-4/b31-30?,33-27-;;;;",AGKKBBSOKGLVTM-YENKNCRGSA-J,[Na+].[Na+].[Na+].[Na+].CC(=O)Nc1ccc(c2C=C(/C(=N/Nc3ccc(N=Nc4ccc(cc4)[S]([O-])(=O)=O)c5ccc(cc35)[S]([O-])(=O)=O)C(=O)c12)[S]([O-])(=O)=O)[S]([O-])(=O)=O,-1.4612448391,0.0,1,G1,867.6930000000003,-9.50760000000002,172.2636999999998,55.0,18.0,2.0,27.0,9.0,266.0,4.0,0.0,1.0,5.0,324.08,401.62462201292425,3.7812470248318632e-06,2745.9553253364134
A-1070,"1,3-benzothiazole",InChI=1S/C7H5NS/c1-2-4-7-6(3-1)8-5-9-7/h1-5H,IOJUPLGTWVMSFF-UHFFFAOYSA-N,s1cnc2ccccc12,-1.6538265258000002,0.0781736004500001,2,G3,135.19099999999997,2.2963000000000005,39.62000000000002,9.0,2.0,0.0,2.0,0.0,44.0,2.0,0.0,0.0,2.0,12.89,56.97307890259017,2.954659790285104,282.89393676634353
A-1073,3-nitrobenzoic acid,"InChI=1S/C7H5NO4/c9-7(10)5-2-1-3-6(4-5)8(11)12/h1-4H,(H,9,10)",AFPHTEQTJZKQAQ-UHFFFAOYSA-N,OC(=O)c1cccc(c1)[N+]([O-])=O,-1.7459071723,0.0523660280083443,5,G5,167.11999999999995,1.293,40.05570000000001,12.0,3.0,1.0,5.0,2.0,62.0,1.0,0.0,0.0,1.0,80.44,67.40507680863314,3.121805775248301,304.683190204761
A-1074,dioxomolybdenum,InChI=1S/Mo.2O,QXYJCZRRLLQGCR-UHFFFAOYSA-N,O=[Mo]=O,-3.7396436363,0.0,1,G1,127.93799999999999,-0.2401,1.373,3.0,2.0,0.0,3.0,0.0,18.0,0.0,0.0,0.0,0.0,34.14,25.98479427784768,3.2659863237109046,23.774437510817343
A-1076,"2,4-dihydro-1H-3,1-benzoxazine-2,4-dione","InChI=1S/C8H5NO3/c10-7-5-3-1-2-4-6(5)9-8(11)12-7/h1-4H,(H,9,11)",TXJUTRJFNRYTHH-UHFFFAOYSA-N,O=C1Nc2ccccc2C(=O)O1,-2.7354179060000003,0.0,1,G1,163.13199999999995,0.4813,43.10470000000001,12.0,3.0,1.0,4.0,0.0,60.0,2.0,0.0,0.0,2.0,63.07,66.46057665627525,3.0939322696636298,523.3042779533675
A-1077,"2-hydroxy-1,2-diphenylethan-1-one","InChI=1S/C14H12O2/c15-13(11-7-3-1-4-8-11)14(16)12-9-5-2-6-10-12/h1-10,13,15H",ISAOCJYIOMOJEB-UHFFFAOYSA-N,OC(c1ccccc1)C(=O)c2ccccc2,-2.8497223519,0.48513882404999986,2,G3,212.248,2.602900000000001,62.17430000000004,16.0,2.0,1.0,2.0,3.0,80.0,2.0,0.0,0.0,2.0,37.3,94.174137406594,2.2393989303204465,462.6087192277259
A-1080,octan-1-ol,"InChI=1S/C8H18O/c1-2-3-4-5-6-7-8-9/h9H,2-8H2,1H3",KBPLFHHGFOOTCA-UHFFFAOYSA-N,CCCCCCCCO,-2.6375931207,0.26137644443651226,6,G5,130.23100000000002,2.3392000000000013,40.461800000000004,9.0,1.0,1.0,1.0,6.0,56.0,0.0,0.0,0.0,0.0,20.23,58.08807958080182,2.595082706793886,37.832293921787276
A-1082,Tellurium dioxide,InChI=1S/O2Te/c1-3-2,LAJZODKXOMJMPK-UHFFFAOYSA-N,O=[Te]=O,-3.7156062333,1.5739591604584695,5,G4,159.59799999999998,-0.6184000000000001,7.126999999999999,3.0,2.0,0.0,3.0,0.0,18.0,0.0,0.0,0.0,0.0,34.14,27.662276756143093,3.2659863237109046,23.774437510817343
A-1085,"methyl 2-[(4-amino-3,5-dichloro-6-fluoropyridin-2-yl)oxy]acetate","InChI=1S/C8H7Cl2FN2O3/c1-15-3(14)2-16-8-5(10)6(12)4(9)7(11)13-8/h2H2,1H3,(H2,12,13)",GIIKFBXVGYJLEK-UHFFFAOYSA-N,COC(=O)COc1nc(F)c(Cl)c(N)c1Cl,-3.9512810281,0.015704232150000053,2,G3,269.05899999999997,1.6615,56.13840000000001,16.0,5.0,1.0,8.0,3.0,88.0,1.0,0.0,0.0,1.0,74.44,100.2464485563931,2.9314149827025315,428.23471678603164
A-1088,"3,7-dimethylocta-1,6-dien-3-yl acetate","InChI=1S/C12H20O2/c1-6-12(5,14-11(4)13)9-7-8-10(2)3/h6,8H,1,7,9H2,2-5H3",UWKAYLJWKGQEPM-UHFFFAOYSA-N,CC(C)=CCCC(C)(OC(C)=O)C=C,-3.8157769203,0.0,1,G1,196.29,3.2406000000000024,59.03300000000004,14.0,2.0,0.0,2.0,5.0,80.0,0.0,0.0,0.0,0.0,26.3,86.64947555137437,4.187563022426478,236.70628424348942
A-1091,"2,6-di-tert-butylphenol","InChI=1S/C14H22O/c1-13(2,3)10-8-7-9-11(12(10)15)14(4,5)6/h7-9,15H,1-6H3",DKCPKDPYUFEZCP-UHFFFAOYSA-N,CC(C)(C)c1cccc(c1O)C(C)(C)C,-4.7135873776,0.10333336940581042,4,G5,206.32899999999995,3.987200000000003,65.50680000000006,15.0,1.0,1.0,1.0,0.0,84.0,1.0,0.0,0.0,1.0,20.23,93.14517378686584,3.368901573147506,318.331941709556
A-1092,"7-{[4,5-dihydroxy-6-(hydroxymethyl)-3-[(3,4,5-trihydroxy-6-methyloxan-2-yl)oxy]oxan-2-yl]oxy}-5-hydroxy-2-(3-hydroxy-4-methoxyphenyl)-3,4-dihydro-2H-1-benzopyran-4-one","InChI=1S/C28H34O15/c1-10-21(33)23(35)25(37)27(39-10)43-26-24(36)22(34)19(9-29)42-28(26)40-12-6-14(31)20-15(32)8-17(41-18(20)7-12)11-3-4-16(38-2)13(30)5-11/h3-7,10,17,19,21-31,33-37H,8-9H2,1-2H3/t10-,17-,19+,21-,22+,23+,24-,25+,26+,27-,28+/m0/s1",ARGKVCXINMKCAZ-UZRWAPQLSA-N,COc1ccc(cc1O)[C@@H]2CC(=O)c3c(O)cc(O[C@@H]4O[C@H](CO)[C@@H](O)[C@H](O)[C@H]4O[C@@H]5O[C@@H](C)[C@H](O)[C@@H](O)[C@H]5O)cc3O2,-5.1858488331,0.0,1,G1,610.5650000000003,-1.1566000000000003,140.69889999999992,43.0,15.0,8.0,15.0,7.0,236.0,2.0,2.0,3.0,5.0,234.28999999999996,244.50674118997216,1.412716325220649,1319.3038683813043
A-1093,dicerium(3+) ion tricarbonate,"InChI=1S/3CH2O3.2Ce/c3*2-1(3)4;;/h3*(H2,2,3,4);;/q;;;2*+3/p-6",GHLITDDQOMIBFS-UHFFFAOYSA-H,[Ce+3].[Ce+3].[O-]C([O-])=O.[O-]C([O-])=O.[O-]C([O-])=O,-5.0664023631,0.0,1,G1,460.2560000000003,-7.341000000000001,16.188,14.0,9.0,0.0,11.0,0.0,74.0,0.0,0.0,0.0,0.0,189.57,144.49628137371684,-2.699999991e-08,115.6067314326046
A-1094,2-ethylhexyl acetate,"InChI=1S/C10H20O2/c1-4-6-7-10(5-2)8-12-9(3)11/h10H,4-8H2,1-3H3",WOYWLLHHWAMFCB-UHFFFAOYSA-N,CCCCC(CC)COC(C)=O,-4.6451400046,0.0,1,G1,172.26799999999997,2.765900000000001,49.93900000000003,12.0,2.0,0.0,2.0,6.0,72.0,0.0,0.0,0.0,0.0,26.3,75.29879738694966,3.4534663383425372,121.00698692803581
A-1095,2-methyldecanenitrile,"InChI=1S/C11H21N/c1-3-4-5-6-7-8-9-11(2)10-12/h11H,3-9H2,1-2H3",XPCSGXMQGQGBKU-UHFFFAOYSA-N,CCCCCCCCC(C)C#N,-4.6324209502,0.0,1,G1,167.296,3.8966800000000035,52.77000000000004,12.0,1.0,0.0,1.0,7.0,70.0,0.0,0.0,0.0,0.0,23.79,76.78125185326435,2.9639246608116006,123.45602719931667
A-1096,"5-[(4-chloro-2-nitrophenyl)diazenyl]-1-ethyl-6-hydroxy-4-methyl-2-oxo-1,2-dihydropyridine-3-carbonitrile","InChI=1S/C15H12ClN5O4/c1-3-20-14(22)10(7-17)8(2)13(15(20)23)19-18-11-5-4-9(16)6-12(11)21(24)25/h4-6,18H,3H2,1-2H3/b19-13+",PJLZYPHMHUHUMN-CPNJWEJPSA-N,CCN1C(=O)C(=N/Nc2ccc(Cl)cc2[N+]([O-])=O)/C(=C(C#N)C1=O)C,-4.96733793,0.8613310350000001,2,G2,361.7450000000002,2.24488,89.87110000000003,25.0,7.0,1.0,10.0,4.0,128.0,1.0,0.0,1.0,2.0,128.7,146.8674681541972,2.489053844020201,884.3981770720477
A-1097,6-methylhept-1-ene,"InChI=1S/C8H16/c1-4-5-6-7-8(2)3/h4,8H,1,5-7H2,2-3H3",DFVOXRAAHOJJBN-UHFFFAOYSA-N,CC(C)CCCC=C,-4.4589901769999996,0.5212019242999999,2,G2,112.216,2.9987000000000013,38.885999999999996,8.0,0.0,0.0,0.0,4.0,48.0,0.0,0.0,0.0,0.0,0.0,52.604242796421545,2.814002148389726,53.05865002596163
A-1098,"6-chloro-5-(2-chloroethyl)-2,3-dihydro-1H-indol-2-one","InChI=1S/C10H9Cl2NO/c11-2-1-6-3-7-4-10(14)13-9(7)5-8(6)12/h3,5H,1-2,4H2,(H,13,14)",ZTQQXEPZEYIVDK-UHFFFAOYSA-N,ClCCc1cc2CC(=O)Nc2cc1Cl,-4.7775740697,0.0,1,G1,230.094,2.615900000000001,58.20970000000002,14.0,1.0,1.0,4.0,2.0,74.0,1.0,0.0,1.0,2.0,29.1,92.20325716096932,2.391449750223496,389.95354262422865
A-1099,bis(2-butoxyethyl) adipate,"InChI=1S/C18H34O6/c1-3-5-11-21-13-15-23-17(19)9-7-8-10-18(20)24-16-14-22-12-6-4-2/h3-16H2,1-2H3",IHTSDBYPAZEUOP-UHFFFAOYSA-N,CCCCOCCOC(=O)CCCCC(=O)OCCOCCCC,-4.9587331394,0.7116981990499998,2,G2,346.46400000000017,3.2666000000000013,91.84000000000007,24.0,6.0,0.0,6.0,17.0,142.0,0.0,0.0,0.0,0.0,71.06,145.72049209068697,3.314723362506585,275.8841107235303
A-1100,"1,1'-ethane-1,1-diyldibenzene","InChI=1S/C14H14/c1-12(13-8-4-2-5-9-13)14-10-6-3-7-11-14/h2-12H,1H3",BSZXAFXFTLXUFV-UHFFFAOYSA-N,CC(c1ccccc1)c2ccccc2,-4.6925039386,0.15402734724257489,5,G5,182.266,3.8384000000000027,60.40100000000004,14.0,0.0,0.0,0.0,2.0,70.0,2.0,0.0,0.0,2.0,0.0,85.21838155435421,2.2962461305928525,335.79776893714006
A-1101,1-benzyl-2-methylbenzene; 1-benzyl-3-methylbenzene; 1-benzyl-4-methylbenzene,"InChI=1S/C14H14/c1-12-7-5-6-10-14(12)11-13-8-3-2-4-9-13/h2-10H,11H2,1H3",PQTAUFTUHHRKSS-UHFFFAOYSA-N,Cc1ccccc1Cc2ccccc2,-4.6925039386,0.0,1,G1,182.26600000000002,3.585820000000002,60.427000000000035,14.0,0.0,0.0,0.0,2.0,70.0,2.0,0.0,0.0,2.0,0.0,85.21838155435421,2.2369588843757167,401.3933040031167
A-1104,dineodymium(3+) ion tricarbonate,"InChI=1S/3CH2O3.2Nd/c3*2-1(3)4;;/h3*(H2,2,3,4);;/q;;;2*+3/p-6",UTWHRPIUNFLOBE-UHFFFAOYSA-H,[Nd+3].[Nd+3].[O-]C([O-])=O.[O-]C([O-])=O.[O-]C([O-])=O,-5.1084204387,0.0,1,G1,468.5040000000003,-7.341000000000001,16.188,14.0,9.0,0.0,11.0,0.0,74.0,0.0,0.0,0.0,0.0,189.57,142.78978081065745,-2.699999991e-08,115.6067314326046
A-1105,"17-Hydroxy-19-norpregn-4-ene-3,20-dione 17-acetate","InChI=1S/C22H30O4/c1-13(23)22(26-14(2)24)11-9-20-19-6-4-15-12-16(25)5-7-17(15)18(19)8-10-21(20,22)3/h12,17-20H,4-11H2,1-3H3/t17-,18+,19+,20-,21-,22-/m0/s1",MTSLFKWJINJVBO-ZCPXKWAGSA-N,CC(=O)O[C@@]1(CC[C@H]2[C@@H]3CCC4=CC(=O)CC[C@@H]4[C@H]3CC[C@]12C)C(C)=O,-4.9957539374,0.0,1,G1,358.4780000000001,4.0191000000000034,97.27100000000006,26.0,4.0,0.0,4.0,2.0,142.0,0.0,3.0,4.0,4.0,60.440000000000005,155.28821931349535,1.6618878892044129,692.2558168863451
A-1106,"2,5-dianilinoterephthalic acid","InChI=1S/C20H16N2O4/c23-19(24)15-12-18(22-14-9-5-2-6-10-14)16(20(25)26)11-17(15)21-13-7-3-1-4-8-13/h1-12,21-22H,(H,23,24)(H,25,26)",ZJQZWNLKRBUEKX-UHFFFAOYSA-N,OC(=O)c1cc(Nc2ccccc2)c(cc1Nc3ccccc3)C(O)=O,-4.9857232877,0.0,1,G1,348.35800000000006,4.5702000000000025,99.81000000000004,26.0,4.0,4.0,6.0,6.0,130.0,3.0,0.0,0.0,3.0,98.66,149.2867118321139,2.0645203449238503,861.534822599755
A-1107,benzyl (2E)-3-phenylprop-2-enoate,"InChI=1S/C16H14O2/c17-16(12-11-14-7-3-1-4-8-14)18-13-15-9-5-2-6-10-15/h1-12H,13H2/b12-11+",NGHOLYJTSCBCGC-VAWYXSNFSA-N,O=C(OCc1ccccc1)/C=C/c2ccccc2,-4.8207960263,0.0,1,G1,238.286,3.443200000000002,71.71400000000004,18.0,2.0,0.0,2.0,4.0,90.0,2.0,0.0,0.0,2.0,26.3,106.53373008051383,1.8435520044760814,515.3079284873783
A-1110,"4,6-di(phenyl)-5H-1,3,5-triazin-2-one","InChI=1S/C15H11N3O/c19-15-17-13(11-7-3-1-4-8-11)16-14(18-15)12-9-5-2-6-10-12/h1-10H,(H,16,17,18,19)",KODLDJGSBFMSDG-UHFFFAOYSA-N,O=C1N=C(NC(=N1)c2ccccc2)c3ccccc3,-5.4935852535,0.0,1,G1,249.27300000000002,2.498900000000001,73.52470000000002,19.0,3.0,1.0,4.0,2.0,92.0,3.0,0.0,0.0,3.0,58.64,109.36605757450833,2.1457679892910444,675.347524670074
A-1111,digadolinium trioxide,InChI=1S/2Gd.3O/q2*+3;3*-2,CMIHHWBVHJVIGI-UHFFFAOYSA-N,[O--].[O--].[O--].[Gd+3].[Gd+3],-5.0152363724,1.696449593562513,6,G4,362.497,-0.3564,2.0595,5.0,0.0,0.0,5.0,0.0,34.0,0.0,0.0,0.0,0.0,85.5,94.1816993478182,-0.0,4.854752972273344
A-1112,"1,5-dimethyl-1-vinylhex-4-en-1-yl 2-methylpropanoate","InChI=1S/C14H24O2/c1-7-14(6,10-8-9-11(2)3)16-13(15)12(4)5/h7,9,12H,1,8,10H2,2-6H3",JZIARAQCPRDGAC-UHFFFAOYSA-N,CC(C)C(=O)OC(C)(CCC=C(C)C)C=C,-4.8105849842,0.0,1,G1,224.34399999999994,3.876700000000003,68.19700000000005,16.0,2.0,0.0,2.0,6.0,92.0,0.0,0.0,0.0,0.0,26.3,99.37935978016759,4.367265668690333,272.4599288085927
A-1113,"(diphenylphosphoroso)(2,4,6-trimethylphenyl)methanone","InChI=1S/C22H21O2P/c1-16-14-17(2)21(18(3)15-16)22(23)25(24,19-10-6-4-7-11-19)20-12-8-5-9-13-20/h4-15H,1-3H3",VFHVQBAGLAREND-UHFFFAOYSA-N,Cc1cc(C)c(c(C)c1)C(=O)[P](=O)(c2ccccc2)c3ccccc3,-5.010576791,0.25495688404999983,2,G3,348.382,4.766160000000004,104.74200000000003,25.0,2.0,0.0,3.0,4.0,126.0,3.0,0.0,0.0,3.0,34.14,148.4564819893486,2.274162133336069,893.3272097194056
A-1114,"3-[(2-ethylhexanoyl)oxy]-2,2-dimethylpropyl 2-ethylhexanoate","InChI=1S/C21H40O4/c1-7-11-13-17(9-3)19(22)24-15-21(5,6)16-25-20(23)18(10-4)14-12-8-2/h17-18H,7-16H2,1-6H3",GORMSINSWZJIKL-UHFFFAOYSA-N,CCCCC(CC)C(=O)OCC(C)(C)COC(=O)C(CC)CCCC,-5.0206378696,1.2657394585000001,2,G2,356.5470000000002,5.531800000000006,102.31100000000008,25.0,4.0,0.0,4.0,14.0,148.0,0.0,0.0,0.0,0.0,52.6,154.588227974863,4.339494107981307,342.09233896986063
A-1115,titanium(4+) ion zirconium(4+) ion lead(2+) ion pentaoxidandiide,InChI=1S/5O.Pb.Ti.Zr/q5*-2;+2;2*+4,HFGPZNIAWCZYJU-UHFFFAOYSA-N,[O--].[O--].[O--].[O--].[O--].[Ti+4].[Zr+4].[Pb++],-5.0982221528,0.0,1,G1,426.286,-0.9797999999999999,9.186499999999999,8.0,0.0,0.0,8.0,0.0,42.0,0.0,0.0,0.0,0.0,142.5,101.30918768065003,-0.0,12.39035952556319
A-1116,"ethyl 2,2-dimethyl-3-(2-methylprop-1-en-1-yl)cyclopropane-1-carboxylate","InChI=1S/C12H20O2/c1-6-14-11(13)10-9(7-8(2)3)12(10,4)5/h7,9-10H,6H2,1-5H3",VIMXTGUGWLAOFZ-UHFFFAOYSA-N,CCOC(=O)C1C(C=C(C)C)C1(C)C,-4.7652682741,0.0,1,G1,196.28999999999996,2.7879000000000014,56.82500000000004,14.0,2.0,0.0,2.0,3.0,80.0,0.0,1.0,1.0,1.0,26.3,86.33324743002937,2.6588530245812474,259.49529453537843
A-1119,N-(4-carbamoylphenyl)-4-nitrobenzamide,"InChI=1S/C14H11N3O4/c15-13(18)9-1-5-11(6-2-9)16-14(19)10-3-7-12(8-4-10)17(20)21/h1-8H,(H2,15,18)(H,16,19)",FANLHXKNWWSLIG-UHFFFAOYSA-N,NC(=O)c1ccc(NC(=O)c2ccc(cc2)[N+]([O-])=O)cc1,-4.9367254155,0.0,1,G1,285.259,1.9459999999999997,76.0095,21.0,4.0,2.0,7.0,4.0,106.0,2.0,0.0,0.0,2.0,115.33000000000001,119.08415435756231,2.0983046308669966,693.1639887493035
A-1120,"1-(6-tert-butyl-1,1-dimethyl-2,3-dihydro-1H-inden-4-yl)ethan-1-one","InChI=1S/C17H24O/c1-11(18)14-9-12(16(2,3)4)10-15-13(14)7-8-17(15,5)6/h9-10H,7-8H2,1-6H3",IKTHMQYJOWTSJO-UHFFFAOYSA-N,CC(=O)c1cc(cc2c1CCC2(C)C)C(C)(C)C,-4.8708662082,0.0,1,G1,244.37799999999993,4.410500000000004,76.49350000000005,18.0,1.0,0.0,1.0,1.0,98.0,1.0,0.0,1.0,2.0,17.07,110.60145732437417,2.710745229436513,501.07675664304514
A-1121,"N-(4-amino-3-methoxy-9,10-dioxo-9,10-dihydroanthracen-1-yl)-4-methylbenzene-1-sulfonamide","InChI=1S/C22H18N2O5S/c1-12-7-9-13(10-8-12)30(27,28)24-16-11-17(29-2)20(23)19-18(16)21(25)14-5-3-4-6-15(14)22(19)26/h3-11,24H,23H2,1-2H3",BXIGAWRFDMDLTL-UHFFFAOYSA-N,COc1cc(N[S](=O)(=O)c2ccc(C)cc2)c3C(=O)c4ccccc4C(=O)c3c1N,-5.1125700507,2.0541919416999996,2,G2,422.4620000000002,3.162020000000001,112.70090000000002,30.0,6.0,2.0,8.0,4.0,152.0,3.0,0.0,1.0,4.0,115.55999999999999,173.0866470383125,1.9270899693986667,1312.0997159241608
A-1122,2-[(3-carboxy-2-oxidonaphthalen-1-yl)diazenyl]-4-chloro-5-methylbenzenesulfonate;manganese(2+),"InChI=1S/C18H13ClN2O6S.Mn/c1-9-6-15(28(25,26)27)14(8-13(9)19)20-21-16-11-5-3-2-4-10(11)7-12(17(16)22)18(23)24;/h2-8,22H,1H3,(H,23,24)(H,25,26,27);/q;+2/p-2",FXKOYCHIRMCIOR-UHFFFAOYSA-L,[H+].[Mn++].Cc1cc(c(cc1Cl)N=Nc2c([O-])c(cc3ccccc23)C([O-])=O)[S]([O-])(=O)=O,-5.1704010781,0.5538169391999999,2,G2,473.75200000000024,2.6682200000000025,97.16470000000004,29.0,8.0,0.0,11.0,4.0,149.0,3.0,0.0,0.0,3.0,145.10999999999999,182.1091344136529,2.2499988551255974e-06,1267.2565699844195
A-1123,"2,5-bis[(4-methylphenyl)amino]terephthalic acid","InChI=1S/C22H20N2O4/c1-13-3-7-15(8-4-13)23-19-11-18(22(27)28)20(12-17(19)21(25)26)24-16-9-5-14(2)6-10-16/h3-12,23-24H,1-2H3,(H,25,26)(H,27,28)",FVLUGNOOEZYDNV-UHFFFAOYSA-N,Cc1ccc(Nc2cc(C(O)=O)c(Nc3ccc(C)cc3)cc2C(O)=O)cc1,-5.0705134819,0.0,1,G1,376.4120000000001,5.187040000000003,109.28400000000005,28.0,4.0,4.0,6.0,6.0,142.0,3.0,0.0,0.0,3.0,98.66,162.0165960609071,2.039065666766881,940.4024446506246
A-1125,"(Z)-N-(4-chloro-2,5-dimethoxyphenyl)-3-hydroxynaphthalene-2-carboximidic acid","InChI=1S/C19H16ClNO4/c1-24-17-10-15(18(25-2)9-14(17)20)21-19(23)13-7-11-5-3-4-6-12(11)8-16(13)22/h3-10,22H,1-2H3,(H,21,23)",QIHKTBRNOLQDGQ-UHFFFAOYSA-N,COc1cc(NC(=O)c2cc3ccccc3cc2O)c(OC)cc1Cl,-5.0622701457999995,0.0,1,G1,357.7930000000001,4.468300000000003,98.12200000000003,25.0,4.0,2.0,6.0,4.0,128.0,3.0,0.0,0.0,3.0,67.79,149.3009629222293,1.9863303805503023,955.5521119106772
A-1126,2-ethylhexyl 2-methylprop-2-enoate,"InChI=1S/C12H22O2/c1-5-7-8-11(6-2)9-14-12(13)10(3)4/h11H,3,5-9H2,1-2,4H3",WDQMWEYDKDCEHT-UHFFFAOYSA-N,CCCCC(CC)COC(=O)C(C)=C,-4.8059741607,0.28213545659848094,3,G5,198.30599999999995,3.3221000000000016,59.07900000000004,14.0,2.0,0.0,2.0,7.0,82.0,0.0,0.0,0.0,0.0,26.3,87.33907858355862,3.7146588415887125,184.76075065686052
A-1127,3-(chloromethyl)heptane,"InChI=1S/C8H17Cl/c1-3-5-6-8(4-2)7-9/h8H,3-7H2,1-2H3",WLVCBAMXYMWGLJ-UHFFFAOYSA-N,CCCCC(CC)CCl,-4.6808820955,0.7542910477500002,2,G2,148.677,3.441600000000002,44.02600000000002,9.0,0.0,0.0,1.0,5.0,56.0,0.0,0.0,0.0,0.0,0.0,63.59711205548747,3.0922461946023914,48.52932501298081
A-1128,4-amino-N-(4-carbamoylphenyl)benzamide,"InChI=1S/C14H13N3O2/c15-11-5-1-10(2-6-11)14(19)17-12-7-3-9(4-8-12)13(16)18/h1-8H,15H2,(H2,16,18)(H,17,19)",FSPYMSUDIVFOHY-UHFFFAOYSA-N,NC(=O)c1ccc(NC(=O)c2ccc(N)cc2)cc1,-4.9156499936,0.0,1,G1,255.277,1.6199999999999999,73.76750000000001,19.0,3.0,3.0,5.0,3.0,96.0,2.0,0.0,0.0,2.0,98.21,109.77106933207524,2.10094264836283,603.5931327965329
A-1129,"Alcohols, C12-13","InChI=1S/C12H26O.CH4/c1-2-3-4-5-6-7-8-9-10-11-12-13;/h13H,2-12H2,1H3;1H4",WWYHAQDAMPXWSI-UHFFFAOYSA-N,C.CCCCCCCCCCCCO,-4.8148101896,0.055575226050000204,2,G3,202.38199999999995,4.535700000000005,65.66080000000005,14.0,1.0,1.0,1.0,10.0,88.0,0.0,0.0,0.0,0.0,20.23,90.91862130631412,0.0,71.30474818299281
A-1132,10-(prop-2-enoyloxy)decyl prop-2-enoate,"InChI=1S/C16H26O4/c1-3-15(17)19-13-11-9-7-5-6-8-10-12-14-20-16(18)4-2/h3-4H,1-2,5-14H2",RHNJVKIVSXGYBD-UHFFFAOYSA-N,C=CC(=O)OCCCCCCCCCCOC(=O)C=C,-4.9608754545,0.0,1,G1,282.37999999999994,3.5656000000000025,79.24800000000005,20.0,4.0,0.0,4.0,13.0,114.0,0.0,0.0,0.0,0.0,52.6,121.38431133851148,3.0947974740207425,266.85199763425834
A-1133,17-hydroxy-1-methylandrostan-3-one,"InChI=1S/C20H32O2/c1-12-10-14(21)11-13-4-5-15-16-6-7-18(22)19(16,2)9-8-17(15)20(12,13)3/h12-13,15-18,22H,4-11H2,1-3H3/t12-,13-,15-,16-,17-,18-,19-,20-/m0/s1",UXYRZJKIQKRJCF-TZPFWLJSSA-N,C[C@H]1CC(=O)C[C@@H]2CC[C@H]3[C@@H]4CC[C@H](O)[C@@]4(C)CC[C@@H]3[C@@]12C,-5.0064289581,0.0,1,G1,304.47400000000005,4.205100000000003,87.28780000000006,22.0,2.0,1.0,2.0,0.0,124.0,0.0,4.0,4.0,4.0,37.3,134.60558243948796,1.671256444682695,486.09891615235574
A-1134,"2,2,4,4-Tetramethyl-7-oxa-3,20-diazadispiro(5.1.11.2)heneicosan-21-one","InChI=1S/C22H40N2O2/c1-19(2)16-21(17-20(3,4)24-19)18(25)23-22(26-21)14-12-10-8-6-5-7-9-11-13-15-22/h24H,5-17H2,1-4H3,(H,23,25)",IVVLFHBYPHTMJU-UHFFFAOYSA-N,CC1(C)CC2(CC(C)(C)N1)OC3(CCCCCCCCCCC3)NC2=O,-5.0846644385,0.0,1,G1,364.5740000000001,4.813200000000005,106.00440000000008,26.0,3.0,2.0,4.0,0.0,150.0,0.0,3.0,3.0,3.0,50.36,159.76033366633735,1.7764980843311697,484.27163701889305
A-1135,"2,4-bis(2-methylbutan-2-yl)phenol","InChI=1S/C16H26O/c1-7-15(3,4)12-9-10-14(17)13(11-12)16(5,6)8-2/h9-11,17H,7-8H2,1-6H3",WMVJWKURWRGJCI-UHFFFAOYSA-N,CCC(C)(C)c1ccc(O)c(c1)C(C)(C)CC,-4.8928048539999995,0.0,1,G1,234.38299999999995,4.767400000000005,74.74080000000006,17.0,1.0,1.0,1.0,4.0,96.0,1.0,0.0,0.0,1.0,20.23,105.87505801565905,3.2956344601056498,388.51169405742496
A-1137,2-ethylhexyl 2-{[bis({2-[(2-ethylhexyl)oxy]-2-oxoethyl}sulfanyl)(methyl)stannyl]sulfanyl}acetate,"InChI=1S/3C10H20O2S.CH3.Sn/c3*1-3-5-6-9(4-2)7-12-10(11)8-13;;/h3*9,13H,3-8H2,1-2H3;1H3;/q;;;;+3/p-3",ACRNSUGLVQJCOM-UHFFFAOYSA-K,CCCCC(CC)COC(=O)CS[Sn](C)(SCC(=O)OCC(CC)CCCC)SCC(=O)OCC(CC)CCCC,-5.3942922935,0.195463383186199,4,G5,743.7269999999997,9.033500000000005,181.7869999999994,41.0,9.0,0.0,10.0,27.0,242.0,0.0,0.0,0.0,0.0,78.90000000000002,263.85922028684314,5.023957941737601,608.4214831345325
A-1139,oxydiethylene bis(chloroformate),InChI=1S/C6H8Cl2O5/c7-5(9)12-3-1-11-2-4-13-6(8)10/h1-4H2,XFSAZBKSWGOXRH-UHFFFAOYSA-N,ClC(=O)OCCOCCOC(Cl)=O,-4.8865490032,0.0,1,G1,231.03099999999998,1.7538,45.221000000000025,13.0,5.0,0.0,7.0,6.0,76.0,0.0,0.0,0.0,0.0,61.830000000000005,84.8341739421841,2.9961049979124525,154.40754636792667
A-1140,tris[oxalato(2-)]dilutetium,"InChI=1S/3C2H2O4.2Lu/c3*3-1(4)2(5)6;;/h3*(H,3,4)(H,5,6);;/q;;;2*+3/p-6",WBXXVIQNIMIONY-UHFFFAOYSA-H,[Lu+3].[Lu+3].[O-]C(=O)C([O-])=O.[O-]C(=O)C([O-])=O.[O-]C(=O)C([O-])=O,-5.3110386285,0.027744843171887988,4,G5,613.9880000000003,-10.5414,30.041999999999994,20.0,12.0,0.0,14.0,0.0,126.0,0.0,0.0,0.0,0.0,240.77999999999997,166.9182078919772,-5.3571428295918366e-08,281.0851869626513