ID,Name,InChI,InChIKey,SMILES,Solubility,SD,Ocurrences,Group,MolWt,MolLogP,MolMR,HeavyAtomCount,NumHAcceptors,NumHDonors,NumHeteroatoms,NumRotatableBonds,NumValenceElectrons,NumAromaticRings,NumSaturatedRings,NumAliphaticRings,RingCount,TPSA,LabuteASA,BalabanJ,BertzCT
A-787,"4-aminobenzene-1,3-disulfonic acid","InChI=1S/C6H7NO6S2/c7-5-2-1-4(14(8,9)10)3-6(5)15(11,12)13/h1-3H,7H2,(H,8,9,10)(H,11,12,13)",IMUUNYPYNWXUBO-UHFFFAOYSA-N,Nc1ccc(cc1[S](O)(=O)=O)[S](O)(=O)=O,-1.7700930025,0.0,1,G1,253.257,-0.23779999999999984,50.4836,15.0,5.0,3.0,9.0,2.0,84.0,1.0,0.0,0.0,1.0,134.76,86.02856583659091,3.5736560953504455,588.0481762992183
A-789,2-isopropyl-5-methylcyclohexanol,"InChI=1S/C10H20O/c1-7(2)9-5-4-8(3)6-10(9)11/h7-11H,4-6H2,1-3H3/t8-,9+,10+/m1/s1",NOOLISFMXDJSKH-UTLUCORTSA-N,CC(C)[C@@H]1CC[C@@H](C)C[C@@H]1O,-2.5604043774000003,0.0,1,G1,156.269,2.439500000000001,47.34980000000002,11.0,1.0,1.0,1.0,1.0,66.0,0.0,1.0,1.0,1.0,20.23,69.8121326560658,2.437159260034696,120.04118472439221
A-790,4-methoxy-3-nitrobenzoic acid,"InChI=1S/C8H7NO5/c1-14-7-3-2-5(8(10)11)4-6(7)9(12)13/h2-4H,1H3,(H,10,11)",ANXBDAFDZSXOPQ-UHFFFAOYSA-N,COc1ccc(cc1[N+]([O-])=O)C(O)=O,-2.6613195143,0.0,1,G1,197.146,1.3015999999999999,46.60770000000001,14.0,4.0,1.0,6.0,3.0,74.0,1.0,0.0,0.0,1.0,89.66999999999999,78.88356415253665,3.2744144453933877,387.31807060082883
A-791,"androsta-1,4-diene-3,17-dione","InChI=1S/C19H24O2/c1-18-9-7-13(20)11-12(18)3-4-14-15-5-6-17(21)19(15,2)10-8-16(14)18/h7,9,11,14-16H,3-6,8,10H2,1-2H3",LUJVUUWNAPIQQI-UHFFFAOYSA-N,CC12CCC3C(CCC4=CC(=O)C=CC34C)C1CCC2=O,-2.8204596094,0.015229804699999905,2,G3,284.39900000000006,3.863400000000003,81.62300000000003,21.0,2.0,0.0,2.0,0.0,112.0,0.0,3.0,4.0,4.0,34.14,126.2287226085706,1.7204141031770945,584.3737738095996
A-792,2-phenylethyl pivalate,"InChI=1S/C13H18O2/c1-13(2,3)12(14)15-10-9-11-7-5-4-6-8-11/h4-8H,9-10H2,1-3H3",DPVYDTACPLLHCF-UHFFFAOYSA-N,CC(C)(C)C(=O)OCCc1ccccc1,-3.6752800894999997,0.0,1,G1,206.285,2.8184000000000013,60.560000000000045,15.0,2.0,0.0,2.0,3.0,82.0,1.0,0.0,0.0,1.0,26.3,91.26106524982389,2.3167486080633783,309.0578797466404
A-793,1-cyclohexylethyl acetate,"InChI=1S/C10H18O2/c1-8(12-9(2)11)10-6-4-3-5-7-10/h8,10H,3-7H2,1-2H3",JAVZALBKNIHSLL-UHFFFAOYSA-N,CC(OC(C)=O)C1CCCCC1,-3.5976237668,0.0,1,G1,170.25199999999992,2.518300000000001,47.803000000000026,12.0,2.0,0.0,2.0,2.0,70.0,0.0,1.0,1.0,1.0,26.3,74.29296623342044,2.288661508909127,147.9175691117035
A-794,"4-(2,6,6-trimethylcyclohex-1-en-1-yl)butan-2-one","InChI=1S/C13H22O/c1-10-6-5-9-13(3,4)12(10)8-7-11(2)14/h5-9H2,1-4H3",QJJDNZGPQDGNDX-UHFFFAOYSA-N,CC(=O)CCC1=C(C)CCCC1(C)C,-3.6550445763,0.0,1,G1,194.31799999999996,3.8822000000000036,60.24700000000005,14.0,1.0,0.0,1.0,3.0,80.0,0.0,0.0,1.0,1.0,17.07,87.58464431491913,2.7452307482915366,258.40912820819807
A-797,bromo(ethyl)triphenylphosphorane,"InChI=1S/C20H20P.BrH/c1-2-21(18-12-6-3-7-13-18,19-14-8-4-9-15-19)20-16-10-5-11-17-20;/h3-17H,2H2,1H3;1H/q+1;/p-1",JHYNXXDQQHTCHJ-UHFFFAOYSA-M,[Br-].CC[P+](c1ccccc1)(c2ccccc2)c3ccccc3,-0.9372185286,0.0,1,G1,371.2580000000001,1.0044000000000004,95.68900000000005,22.0,0.0,0.0,2.0,4.0,112.0,3.0,0.0,0.0,3.0,0.0,143.87275833323486,1.7633322772506531e-06,584.0085832964396
A-800,"benzyl({[(2,6-dimethylphenyl)carbamoyl]methyl})diethylazanium benzoate hydrate","InChI=1S/C21H28N2O.C7H6O2/c1-5-23(6-2,15-19-13-8-7-9-14-19)16-20(24)22-21-17(3)11-10-12-18(21)4;8-7(9)6-4-2-1-3-5-6/h7-14H,5-6,15-16H2,1-4H3;1-5H,(H,8,9)",VWTINHYPRWEBQY-UHFFFAOYSA-N,CC[N+](CC)(CC(=O)Nc1c(C)cccc1C)Cc2ccccc2.[O-]C(=O)c3ccccc3,-1.020958606,0.012130576549999939,2,G3,446.5910000000001,4.348840000000004,131.6736,33.0,3.0,1.0,5.0,8.0,174.0,3.0,0.0,0.0,3.0,69.22999999999999,196.83778912181054,3.5731477943970845e-07,1009.2728455685751
A-803,hexan-1-ol,"InChI=1S/C6H14O/c1-2-3-4-5-6-7/h7H,2-6H2,1H3",ZSIAUFGUXNUGDI-UHFFFAOYSA-N,CCCCCCO,-1.382910122,0.27521010140896596,4,G5,102.17699999999999,1.559,31.22779999999998,7.0,1.0,1.0,1.0,4.0,44.0,0.0,0.0,0.0,0.0,20.23,45.35819535200859,2.447472887876344,23.360990398949916
A-808,5-methyl-2-(propan-2-yl)cyclohexan-1-ol,"InChI=1S/C10H20O/c1-7(2)9-5-4-8(3)6-10(9)11/h7-11H,4-6H2,1-3H3/t8-,9+,10-/m1/s1",NOOLISFMXDJSKH-KXUCPTDWSA-N,CC(C)[C@@H]1CC[C@@H](C)C[C@H]1O,-2.5706235426,0.04511758681824296,7,G5,156.269,2.439500000000001,47.34980000000002,11.0,1.0,1.0,1.0,1.0,66.0,0.0,1.0,1.0,1.0,20.23,69.8121326560658,2.437159260034696,120.04118472439221
A-811,"(2E,6E)-3,7-dimethylnona-2,6-dienenitrile","InChI=1S/C11H17N/c1-4-10(2)6-5-7-11(3)8-9-12/h6,8H,4-5,7H2,1-3H3/b10-6+,11-8+",DHJVLXVXNFUSMU-NSJFVGFPSA-N,CC/C(C)=C/CC/C(C)=C/C#N,-3.5896411422,0.0,1,G1,163.26399999999998,3.592780000000002,52.65200000000004,12.0,1.0,0.0,1.0,4.0,66.0,0.0,0.0,0.0,0.0,23.79,75.40204578889583,3.716287221385498,215.64883668805294
A-812,5-hexyl-5-methyldihydrofuran-2(3H)-one,"InChI=1S/C11H20O2/c1-3-4-5-6-8-11(2)9-7-10(12)13-11/h3-9H2,1-2H3",ALWUKGXLBSQSMA-UHFFFAOYSA-N,CCCCCCC1(C)CCC(=O)O1,-2.6432618238999996,0.0,1,G1,184.27899999999997,3.052500000000002,52.490000000000045,13.0,2.0,0.0,2.0,5.0,76.0,0.0,1.0,1.0,1.0,26.3,80.65790834781706,2.160330979024147,176.9290923263184
A-813,2-methoxy-2-methylpropane,"InChI=1S/C5H12O/c1-5(2,3)6-4/h1-4H3",BZLVMXJERCGZMT-UHFFFAOYSA-N,COC(C)(C)C,-0.3235268543,0.0888685389773562,3,G5,88.14999999999999,1.4313,26.761999999999986,6.0,1.0,0.0,1.0,0.0,38.0,0.0,0.0,0.0,0.0,9.23,39.31256471492286,3.168489872670569,33.69332843436965
A-816,sodium 2-amino-5-nitrobenzenesulfonate,"InChI=1S/C6H6N2O5S.Na/c7-5-2-1-4(8(9)10)3-6(5)14(11,12)13;/h1-3H,7H2,(H,11,12,13);/q;+1/p-1",VTMRGLXTSDVXAE-UHFFFAOYSA-M,[Na+].Nc1ccc(cc1[S]([O-])(=O)=O)[N+]([O-])=O,-1.7677385178999998,0.0,1,G1,240.17199999999994,-2.9148999999999985,45.472,15.0,6.0,1.0,9.0,2.0,76.0,1.0,0.0,0.0,1.0,126.36000000000001,107.46630517176204,1.9599994255335073e-06,486.29566300576977
A-818,Patchoulialcohol,"InChI=1S/C15H26O/c1-10-5-8-15(16)13(2,3)11-6-7-14(15,4)12(10)9-11/h10-12,16H,5-9H2,1-4H3/t10-,11?,12?,14-,15?/m0/s1",GGHMUJBZYLPWFD-DUNKBJDJSA-N,C[C@H]1CCC2(O)C(C)(C)C3CC[C@@]2(C)C1C3,-3.7259038202999997,0.0,1,G1,222.37199999999996,3.6098000000000026,66.06680000000006,16.0,1.0,1.0,1.0,0.0,92.0,0.0,4.0,4.0,4.0,20.23,99.62518092099037,2.1292894147623307,321.3966410658722
A-819,"(2-phenylbutan-2-yl)benzene; (2-phenylethyl)benzene; 1,2,4,5-tetraethylbenzene; 1-methyl-2-phenylbenzene; 1-methylnaphthalene; benzene; cyclohexylbenzene; ethenylbenzene; ethylbenzene; phenylbenzene; toluene","InChI=1S/C16H18.C14H14.C14H22.C13H12.C12H16.C12H10.C11H10.C8H10.C8H8.C7H8.C6H6/c1-3-16(2,14-10-6-4-7-11-14)15-12-8-5-9-13-15;1-3-7-13(8-4-1)11-12-14-9-5-2-6-10-14;1-5-11-9-13(7-3)14(8-4)10-12(11)6-2;1-11-7-5-6-10-13(11)12-8-3-2-4-9-12;2*1-3-7-11(8-4-1)12-9-5-2-6-10-12;1-9-5-4-7-10-6-2-3-8-11(9)10;2*1-2-8-6-4-3-5-7-8;1-7-5-3-2-4-6-7;1-2-4-6-5-3-1/h4-13H,3H2,1-2H3;1-10H,11-12H2;9-10H,5-8H2,1-4H3;2-10H,1H3;1,3-4,7-8,12H,2,5-6,9-10H2;1-10H;2-8H,1H3;3-7H,2H2,1H3;2-7H,1H2;2-6H,1H3;1-6H",ILFKMCMFANUWPS-UHFFFAOYSA-N,CCc1ccccc1.CCc2cc(CC)c(CC)cc2CC.CCC(C)(c3ccccc3)c4ccccc4.Cc5ccccc5.Cc6ccccc6c7ccccc7.Cc8cccc9ccccc89.C=Cc%10ccccc%10.C%11CCC(CC%11)c%12ccccc%12.C(Cc%13ccccc%13)c%14ccccc%14.c%15ccccc%15.c%16ccc(cc%16)c%17ccccc%17,-4.5881768419,0.10742192405000006,2,G3,1588.4030000000002,33.96896000000007,533.2950000000026,121.0,0.0,0.0,0.0,15.0,618.0,16.0,1.0,1.0,17.0,0.0,731.128700974417,1.8500023126372754e-07,4995.820440212791
A-824,dibenzylamine,"InChI=1S/C14H15N/c1-3-7-13(8-4-1)11-15-12-14-9-5-2-6-10-14/h1-10,15H,11-12H2",BWLUMTFWVZZZND-UHFFFAOYSA-N,C(NCc1ccccc1)c2ccccc2,-2.6876302374,0.0,1,G1,197.28099999999998,2.9764000000000017,63.42770000000004,15.0,1.0,1.0,1.0,4.0,76.0,2.0,0.0,0.0,2.0,12.03,90.76824373796228,1.8095807579695855,341.09815896246135
A-825,"5-methyl-1H-1,2,3-benzotriazole","InChI=1S/C7H7N3/c1-5-3-2-4-6-7(5)9-10-8-6/h2-4H,1H3,(H,8,9,10)",CMGDVUCDZOBDNL-UHFFFAOYSA-N,Cc1cccc2n[nH]nc12,-1.5169635388,0.0,1,G1,133.15400000000002,1.26632,38.6257,10.0,2.0,1.0,3.0,0.0,50.0,2.0,0.0,0.0,2.0,41.57,58.063373285345556,2.950090305322589,350.378705924098
A-826,3-amino-2-hydroxy-5-nitrobenzene-1-sulfonic acid,"InChI=1S/C6H6N2O6S/c7-4-1-3(8(10)11)2-5(6(4)9)15(12,13)14/h1-2,9H,7H2,(H,12,13,14)",DQIVFTJHYKDOMZ-UHFFFAOYSA-N,Nc1cc(cc(c1O)[S](O)(=O)=O)[N+]([O-])=O,-1.7662055678,0.0,1,G1,234.18899999999996,0.12929999999999997,48.9882,15.0,6.0,3.0,9.0,2.0,82.0,1.0,0.0,0.0,1.0,143.76000000000002,83.8471393012461,3.5947539886334807,522.6688113613134
A-827,"tetrasodium 5-{[(2E)-6-[bis(2-hydroxyethyl)amino]-4-[(4-sulfonatophenyl)amino]-1,2-dihydro-1,3,5-triazin-2-ylidene]amino}-2-[(E)-2-(4-{[(2E)-6-[bis(2-hydroxyethyl)amino]-4-[(4-sulfonatophenyl)amino]-1,2-dihydro-1,3,5-triazin-2-ylidene]amino}-2-sulfonatophenyl)ethenyl]benzene-1-sulfonate","InChI=1S/C40H44N12O16S4.4Na/c53-19-15-51(16-20-54)39-47-35(41-27-5-9-29(10-6-27)69(57,58)59)45-37(49-39)43-31-13-3-25(23-33(31)71(63,64)65)1-2-26-4-14-32(34(24-26)72(66,67)68)44-38-46-36(48-40(50-38)52(17-21-55)18-22-56)42-28-7-11-30(12-8-28)70(60,61)62;;;;/h1-14,23-24,53-56H,15-22H2,(H,57,58,59)(H,60,61,62)(H,63,64,65)(H,66,67,68)(H2,41,43,45,47,49)(H2,42,44,46,48,50);;;;/q;4*+1/p-4/b2-1+;;;;",UGOUPNUFULXHAK-MBCFVHIPSA-J,[Na+].[Na+].[Na+].[Na+].OCCN(CCO)c1nc(Nc2ccc(cc2)[S]([O-])(=O)=O)nc(Nc3ccc(\C=C\c4ccc(Nc5nc(Nc6ccc(cc6)[S]([O-])(=O)=O)nc(n5)N(CCO)CCO)c(c4)[S]([O-])(=O)=O)cc3[S]([O-])(=O)=O)n1,-0.4642868095,0.10542668264999999,2,G3,1165.0559999999998,-11.58420000000004,252.10279999999966,76.0,28.0,8.0,36.0,24.0,384.0,6.0,0.0,0.0,6.0,441.65999999999997,524.058773761911,4.9408250054770915e-06,3181.666312394562
A-830,"1,2-dimethyl benzene-1,2-dicarboxylate","InChI=1S/C10H10O4/c1-13-9(11)7-5-3-4-6-8(7)10(12)14-2/h3-6H,1-2H3",NIQCNGHVCWTJSM-UHFFFAOYSA-N,COC(=O)c1ccccc1C(=O)OC,-1.6861579246,0.13212512891565134,3,G5,194.18599999999995,1.2597999999999998,49.12100000000002,14.0,4.0,0.0,4.0,2.0,74.0,1.0,0.0,0.0,1.0,52.60000000000001,81.44130623618467,3.153839931025287,321.8945603891669
A-831,"4-{bis[4-(dimethylamino)phenyl]methylidene}-N,N-dimethylcyclohexa-2,5-dien-1-iminium chloride","InChI=1S/C25H30N3.ClH/c1-26(2)22-13-7-19(8-14-22)25(20-9-15-23(16-10-20)27(3)4)21-11-17-24(18-12-21)28(5)6;/h7-18H,1-6H3;1H/q+1;/p-1",ZXJXZNDDNMQXFV-UHFFFAOYSA-M,[Cl-].CN(C)c1ccc(cc1)[C+](c2ccc(cc2)N(C)C)c3ccc(cc3)N(C)C,-2.0085884627,0.0,1,G1,407.98900000000015,1.9077900000000012,122.85600000000007,29.0,3.0,0.0,4.0,6.0,152.0,3.0,0.0,0.0,3.0,9.72,181.53278059556084,2.9999965560041325e-06,760.4230567914224
A-832,6-heptyloxan-2-one,"InChI=1S/C10H18O2/c1-2-3-4-6-9-7-5-8-10(11)12-9/h9H,2-8H2,1H3",GHBSPIPJMLAMEP-UHFFFAOYSA-N,CCCCCC1CCCC(=O)O1,-1.6290322311,0.0,1,G1,170.25199999999998,2.6624000000000008,47.87300000000003,12.0,2.0,0.0,2.0,4.0,70.0,0.0,1.0,1.0,1.0,26.3,74.29296623342044,2.097727745725677,142.77400566229178
A-833,"ethyl 4,4,4-trifluoro-3-oxobutanoate","InChI=1S/C6H7F3O3/c1-2-12-5(11)3-4(10)6(7,8)9/h2-3H2,1H3",OCJKUQIPRNZDTK-UHFFFAOYSA-N,CCOC(=O)CC(=O)C(F)(F)F,-1.6630244633000002,0.15051223165000016,2,G3,184.11299999999997,1.0710000000000002,32.31199999999999,12.0,3.0,0.0,6.0,3.0,70.0,0.0,0.0,0.0,0.0,43.370000000000005,66.4971572381857,3.9371870161791196,184.967556752381
A-834,"oxydiethane-2,1-diyl dinitrate",InChI=1S/C4H8N2O7/c7-5(8)12-3-1-11-2-4-13-6(9)10/h1-4H2,LYAGTVMJGHTIDH-UHFFFAOYSA-N,[O-][N+](=O)OCCOCCO[N+]([O-])=O,-1.6904508209,0.008867077472089499,3,G5,196.11499999999998,-0.5804,36.71180000000001,13.0,7.0,0.0,9.0,8.0,76.0,0.0,0.0,0.0,0.0,113.97000000000003,72.38874150349555,2.9961049979124525,153.87547739228722
A-841,diphenylsilanediol,"InChI=1S/C12H12O2Si/c13-15(14,11-7-3-1-4-8-11)12-9-5-2-6-10-12/h1-10,13-14H",OLLFKUHHDPMQFR-UHFFFAOYSA-N,O[Si](O)(c1ccccc1)c2ccccc2,-2.7330206214999997,0.0,1,G1,216.312,0.22759999999999958,62.343600000000045,15.0,2.0,2.0,3.0,2.0,76.0,2.0,0.0,0.0,2.0,40.46,89.70460913314665,2.442186510719565,384.3898117677986
A-842,pentyl pentanoate,"InChI=1S/C10H20O2/c1-3-5-7-9-12-10(11)8-6-4-2/h3-9H2,1-2H3",FGPPDYNPZTUNIU-UHFFFAOYSA-N,CCCCCOC(=O)CCCC,-3.6244813037,0.0,1,G1,172.26799999999994,2.910000000000001,50.009000000000036,12.0,2.0,0.0,2.0,7.0,72.0,0.0,0.0,0.0,0.0,26.3,75.29879738694966,3.0837207939517115,110.40620687739316
A-843,"3-methyl-1-({3-[(3-methyl-2,5-dioxo-2,5-dihydro-1H-pyrrol-1-yl)methyl]phenyl}methyl)-2,5-dihydro-1H-pyrrole-2,5-dione","InChI=1S/C18H16N2O4/c1-11-6-15(21)19(17(11)23)9-13-4-3-5-14(8-13)10-20-16(22)7-12(2)18(20)24/h3-8H,9-10H2,1-2H3",MIIBUHIQXLFJFP-UHFFFAOYSA-N,CC1=CC(=O)N(Cc2cccc(CN3C(=O)C=C(C)C3=O)c2)C1=O,-3.9003349932,0.0,1,G1,324.33600000000007,1.3168,85.07000000000004,24.0,4.0,0.0,6.0,4.0,122.0,1.0,0.0,2.0,3.0,74.76,138.58559586141112,1.7383246128906031,769.9254448410971
A-844,nickel(2+) ion oxalate,"InChI=1S/C2H2O4.Ni/c3-1(4)2(5)6;/h(H,3,4)(H,5,6);/q;+2/p-2",DOLZKNFSRCEOFV-UHFFFAOYSA-L,[Ni++].[O-]C(=O)C([O-])=O,-3.5562285019999997,0.29869847530000015,2,G3,146.71099999999998,-3.5163,10.014,7.0,4.0,0.0,5.0,0.0,42.0,0.0,0.0,0.0,0.0,80.25999999999999,49.06245746641779,0.0,75.69058447171099
A-848,(3Z)-hex-3-en-1-yl benzoate,"InChI=1S/C13H16O2/c1-2-3-4-8-11-15-13(14)12-9-6-5-7-10-12/h3-7,9-10H,2,8,11H2,1H3/b4-3-",BCOXBEHFBZOJJZ-ARJAWSKDSA-N,CC\C=C/CCOC(=O)c1ccccc1,-3.7048974167,0.0,1,G1,204.26900000000003,3.1997000000000018,60.77250000000004,15.0,2.0,0.0,2.0,5.0,80.0,1.0,0.0,0.0,1.0,26.3,90.57146221763963,2.2820220355887875,314.5676547509674
A-851,"1,4-dimethyl 2-aminobenzene-1,4-dicarboxylate","InChI=1S/C10H11NO4/c1-14-9(12)6-3-4-7(8(11)5-6)10(13)15-2/h3-5H,11H2,1-2H3",DSSKDXUDARIMTR-UHFFFAOYSA-N,COC(=O)c1ccc(c(N)c1)C(=O)OC,-3.7185037648000003,0.0,1,G1,209.20099999999996,0.8420000000000001,53.533400000000015,15.0,5.0,1.0,5.0,2.0,80.0,1.0,0.0,0.0,1.0,78.62,86.7811969331974,3.0826276535835366,400.40890374142333
A-853,8-ethylundecan-1-amine,"InChI=1S/C13H29N/c1-3-10-13(4-2)11-8-6-5-7-9-12-14/h13H,3-12,14H2,1-2H3",KFBNTNYCQVDLBK-UHFFFAOYSA-N,CCCC(CC)CCCCCCCN,-3.6976259568,0.0,1,G1,199.38199999999995,4.112000000000003,65.44540000000006,14.0,1.0,1.0,1.0,10.0,86.0,0.0,0.0,0.0,0.0,26.02,90.45844709760159,3.1539823050073923,101.40868524464067
A-855,dodecanedioic acid,"InChI=1S/C12H22O4/c13-11(14)9-7-5-3-1-2-4-6-8-10-12(15)16/h1-10H2,(H,13,14)(H,15,16)",TVIDDXQYHWJXFK-UHFFFAOYSA-N,OC(=O)CCCCCCCCCCC(O)=O,-3.7602414897000003,0.6332481273860251,5,G4,230.30399999999995,3.0566000000000013,61.441600000000044,16.0,2.0,2.0,4.0,11.0,94.0,0.0,0.0,0.0,0.0,74.6,96.66512599067184,2.9847083013580864,179.19544121138722
A-857,"4,4,8,8-tetramethyloctahydro-4a,7-methanonaphtho[1,8a-b]oxirene","InChI=1S/C15H24O/c1-12(2)7-6-11-15(16-11)13(3,4)10-5-8-14(12,15)9-10/h10-11H,5-9H2,1-4H3",VQHLGZRKOZIABH-UHFFFAOYSA-N,CC1(C)CCC2OC23C(C)(C)C4CCC13C4,-4.6529288002,0.0,1,G1,220.35599999999994,3.7703000000000033,64.17400000000005,16.0,1.0,0.0,1.0,0.0,90.0,0.0,4.0,4.0,4.0,12.53,98.93866124477202,1.934409286311033,369.63124116971875
A-861,"1-[(9,9-dimethyldecyl)sulfanyl]propan-2-ol","InChI=1S/C15H32OS/c1-14(16)13-17-12-10-8-6-5-7-9-11-15(2,3)4/h14,16H,5-13H2,1-4H3",XROXSXGRRMHJFJ-UHFFFAOYSA-N,CC(O)CSCCCCCCCCC(C)(C)C,-4.7309406924,0.0,1,G1,260.4869999999999,4.877200000000005,80.77980000000007,17.0,2.0,1.0,2.0,10.0,104.0,0.0,0.0,0.0,0.0,20.23,112.76578440694334,3.0401683284797585,160.79497987365733
A-862,dodecanoic acid,"InChI=1S/C12H24O2/c1-2-3-4-5-6-7-8-9-10-11-12(13)14/h2-11H2,1H3,(H,13,14)",POULHZVOKOAJMA-UHFFFAOYSA-N,CCCCCCCCCCCC(O)=O,-4.6195835711,0.5292917855499997,2,G2,200.32199999999997,3.991900000000002,59.47980000000005,14.0,1.0,1.0,2.0,10.0,84.0,0.0,0.0,0.0,0.0,37.3,87.70937013843205,2.884064614706359,132.28341890015258
A-863,"[2-butyl-4-chloro-1-({4-[2-(2H-1,2,3,4-tetrazol-5-yl)phenyl]phenyl}methyl)-1H-imidazol-5-yl]methanol","InChI=1S/C22H23ClN6O/c1-2-3-8-20-24-21(23)19(14-30)29(20)13-15-9-11-16(12-10-15)17-6-4-5-7-18(17)22-25-27-28-26-22/h4-7,9-12,30H,2-3,8,13-14H2,1H3,(H,25,26,27,28)",PSIFNNKUMBGKDQ-UHFFFAOYSA-N,CCCCc1nc(Cl)c(CO)n1Cc2ccc(cc2)c3ccccc3c4n[nH]nn4,-4.9450169862,0.0,1,G1,422.9200000000001,4.2668000000000035,115.9235,30.0,6.0,2.0,8.0,8.0,154.0,4.0,0.0,0.0,4.0,92.51,179.30208336077052,1.6211679783418802,1105.3755176033308
A-864,lutetium oxide,InChI=1S/2Lu.3O/q2*+3;3*-2,UGBIHFMRUDAMBY-UHFFFAOYSA-N,[O--].[O--].[O--].[Lu+3].[Lu+3],-4.9185665359,0.0,1,G1,397.93100000000004,-0.3564,2.0595,5.0,0.0,0.0,5.0,0.0,48.0,0.0,0.0,0.0,0.0,85.5,88.4187869168143,-0.0,4.854752972273344
A-865,2-ethylhexyl 2-sulfanylacetate,"InChI=1S/C10H20O2S/c1-3-5-6-9(4-2)7-12-10(11)8-13/h9,13H,3-8H2,1-2H3",OWHSTLLOZWTNTQ-UHFFFAOYSA-N,CCCCC(CC)COC(=O)CS,-4.635481621399999,0.0,1,G1,204.33499999999998,2.675800000000001,58.118000000000045,13.0,3.0,1.0,3.0,7.0,78.0,0.0,0.0,0.0,0.0,26.3,86.45386405035137,3.5228324986330612,136.88643538696058
A-867,"(1,1-dimethylpropyl)benzene","InChI=1S/C11H16/c1-4-11(2,3)10-8-6-5-7-9-10/h5-9H,4H2,1-3H3",QHTJSSMHBLGUHV-UHFFFAOYSA-N,CCC(C)(C)c1ccccc1,-4.5007459195,0.17547295975,2,G3,148.24899999999997,3.374200000000002,49.75900000000004,11.0,0.0,0.0,0.0,2.0,60.0,1.0,0.0,0.0,1.0,0.0,69.25611369148,2.9284445313943723,208.73973650167846
A-868,"2-methyl-4-(2,6,6-trimethylcyclohex-2-en-1-yl)butanal","InChI=1S/C14H24O/c1-11-7-5-9-14(3,4)13(11)12(2)8-6-10-15/h7,10,12-13H,5-6,8-9H2,1-4H3",ACVNYUMGXUDACR-UHFFFAOYSA-N,CC(CCC=O)C1C(=CCCC1(C)C)C,-4.6532020914,0.44371487035000046,2,G3,208.34499999999994,3.9841000000000033,64.72400000000005,15.0,1.0,0.0,1.0,4.0,86.0,0.0,0.0,1.0,1.0,17.07,93.94958642931573,2.740845336614066,250.06431514214864
A-870,"2,2-dimethyl-3-methylidenebicyclo[2.2.1]heptane","InChI=1S/C10H16/c1-7-8-4-5-9(6-8)10(7,2)3/h8-9H,1,4-6H2,2-3H3",CRPUJAZIXJMDBK-UHFFFAOYSA-N,CC1(C)C2CCC(C2)C1=C,-4.4715404278,0.019754270650000016,2,G3,136.238,2.9987000000000013,43.75200000000002,10.0,0.0,0.0,0.0,0.0,56.0,0.0,2.0,2.0,2.0,0.0,63.322464718156304,2.3367677527130697,176.47733175670794
A-871,2-[2-(4-methylcyclohex-3-en-1-yl)propyl]cyclopentan-1-one,"InChI=1S/C15H24O/c1-11-6-8-13(9-7-11)12(2)10-14-4-3-5-15(14)16/h6,12-14H,3-5,7-10H2,1-2H3",KNHGOYVXAHUDHP-UHFFFAOYSA-N,CC(CC1CCCC1=O)C2CCC(=CC2)C,-4.6803670486,0.0,1,G1,220.35599999999997,4.128200000000004,67.22700000000005,16.0,1.0,0.0,1.0,3.0,90.0,0.0,1.0,2.0,2.0,17.07,99.3086973901831,1.8344181263922255,289.8100768023834
A-874,methyl decanoate,"InChI=1S/C11H22O2/c1-3-4-5-6-7-8-9-10-11(12)13-2/h3-10H2,1-2H3",YRHYCMZPEVDGFQ-UHFFFAOYSA-N,CCCCCCCCCC(=O)OC,-4.6267485225,0.19700143601345801,3,G5,186.295,3.3001000000000023,54.62600000000005,13.0,2.0,0.0,2.0,8.0,78.0,0.0,0.0,0.0,0.0,26.3,81.66373950134629,2.951096443012517,121.2586863990795
A-875,dipraseodymium(3+) ion tricarbonate,"InChI=1S/3CH2O3.2Pr/c3*2-1(3)4;;/h3*(H2,2,3,4);;/q;;;2*+3/p-6",XIRHLBQGEYXJKG-UHFFFAOYSA-H,[Pr+3].[Pr+3].[O-]C([O-])=O.[O-]C([O-])=O.[O-]C([O-])=O,-5.0220270242,0.2576798609500002,2,G3,461.84000000000026,-7.341000000000001,16.188,14.0,9.0,0.0,11.0,0.0,72.0,0.0,0.0,0.0,0.0,189.57,143.6407251631794,-2.699999991e-08,115.6067314326046
A-876,"1,1,3,3-tetrabutylurea","InChI=1S/C17H36N2O/c1-5-9-13-18(14-10-6-2)17(20)19(15-11-7-3)16-12-8-4/h5-16H2,1-4H3",SNDGLCYYBKJSOT-UHFFFAOYSA-N,CCCCN(CCCC)C(=O)N(CCCC)CCCC,-4.8205954965,0.0,1,G1,284.48799999999994,4.910800000000005,88.17400000000008,20.0,1.0,0.0,3.0,12.0,120.0,0.0,0.0,0.0,0.0,23.550000000000004,126.2595142986258,4.539321073402677,193.02989363110697
A-877,Cedryl methyl ether,"InChI=1S/C16H28O/c1-11-6-7-12-14(2,3)13-10-16(11,12)9-8-15(13,4)17-5/h11-13H,6-10H2,1-5H3/t11-,12+,13-,15-,16?/m1/s1",HRGPYCVTDOECMG-FETWPZQLSA-N,CO[C@]1(C)CCC23C[C@@H]1C(C)(C)[C@@H]2CC[C@H]3C,-4.7401771795,0.0,1,G1,236.39899999999997,4.263900000000004,70.85700000000006,17.0,1.0,0.0,1.0,1.0,98.0,0.0,3.0,3.0,3.0,9.23,106.30943451269783,2.0431028875845927,334.4168801789137
A-883,cyclododecyl methyl ether,"InChI=1S/C13H26O/c1-14-13-11-9-7-5-3-2-4-6-8-10-12-13/h13H,2-12H2,1H3",WDSOYUINLRIGNV-UHFFFAOYSA-N,COC1CCCCCCCCCCC1,-4.6835903829,0.0,1,G1,198.34999999999994,4.306100000000004,61.58400000000006,14.0,1.0,0.0,1.0,1.0,84.0,0.0,1.0,1.0,1.0,9.23,89.22627047656653,2.166172108107462,110.40397044122784