ID,Name,InChI,InChIKey,SMILES,Solubility,SD,Ocurrences,Group,MolWt,MolLogP,MolMR,HeavyAtomCount,NumHAcceptors,NumHDonors,NumHeteroatoms,NumRotatableBonds,NumValenceElectrons,NumAromaticRings,NumSaturatedRings,NumAliphaticRings,RingCount,TPSA,LabuteASA,BalabanJ,BertzCT
A-3236,potassium phosphinate,"InChI=1S/K.HO2P/c;1-3-2/h;(H,1,2)/q+1;/p-1",CRGPNLUFHHUKCM-UHFFFAOYSA-M,[K+].[O-]P=O,0.8626748208,0.0,1,G1,102.07,-3.4426,7.6065,4.0,2.0,0.0,4.0,0.0,18.0,0.0,0.0,0.0,0.0,40.129999999999995,68.29758736022039,0.0,13.509775004326936
A-3237,sodium phosphinate,"InChI=1S/Na.HO2P.H2O/c;1-3-2;/h;(H,1,2);1H2/q+1;;/p-1",ACUGTEHQOFWBES-UHFFFAOYSA-M,O.[Na+].[O-]P=O,0.8546356528,0.0,1,G1,103.97699999999999,-4.267299999999999,11.2203,5.0,2.0,0.0,5.0,0.0,26.0,0.0,0.0,0.0,0.0,71.63,53.269175715984154,-1.99999998125e-08,14.364527976600282
A-3238,2-(butoxymethyl)oxirane; propan-2-amine; trifluoroborane,"InChI=1S/C7H14O2.C3H9N.BF3/c1-2-3-4-8-5-7-6-9-7;1-3(2)4;2-1(3)4/h7H,2-6H2,1H3;3H,4H2,1-2H3;",CXWVMBGMGJTKRX-UHFFFAOYSA-N,CCCCOCC1CO1.CC(C)N.FB(F)F,-0.5379542498,0.0,1,G1,257.10499999999996,2.4352,63.868400000000044,17.0,3.0,1.0,7.0,5.0,104.0,0.0,1.0,1.0,1.0,47.78,102.06362749048157,0.0,138.00292484589173
A-3239,benzyltriphenylphosphanium chloride,"InChI=1S/C25H22P.ClH/c1-5-13-22(14-6-1)21-26(23-15-7-2-8-16-23,24-17-9-3-10-18-24)25-19-11-4-12-20-25;/h1-20H,21H2;1H/q+1;/p-1",USFRYJRPHFMVBZ-UHFFFAOYSA-M,[Cl-].C(c1ccccc1)[P+](c2ccccc2)(c3ccccc3)c4ccccc4,-0.7188245606999999,0.0,1,G1,388.87800000000004,2.1847000000000003,115.29400000000001,27.0,0.0,0.0,2.0,5.0,134.0,4.0,0.0,0.0,4.0,0.0,168.20530156500416,2.1024981664766527e-06,841.8000083084903
A-3240,"sodium 1,4-bis(cyclohexyloxy)-1,4-dioxobutane-2-sulfonate","InChI=1S/C16H26O7S.Na/c17-15(22-12-7-3-1-4-8-12)11-14(24(19,20)21)16(18)23-13-9-5-2-6-10-13;/h12-14H,1-11H2,(H,19,20,21);/q;+1/p-1",UELAIMNOXLAYRW-UHFFFAOYSA-M,[Na+].[O-][S](=O)(=O)C(CC(=O)OC1CCCCC1)C(=O)OC2CCCCC2,-0.7147015973999999,0.0,1,G1,384.4260000000002,-0.9538999999999949,84.03220000000006,25.0,7.0,0.0,9.0,6.0,138.0,0.0,2.0,2.0,2.0,109.8,170.79389072857413,3.1249964375042534e-06,536.6864850132554
A-3241,"2-[2-[4-[(2-cyanoethyl)methylamino]phenyl]vinyl]-1,3,3-trimethyl-3H-indolium hydrogen sulphate","InChI=1S/C23H26N3.H2O4S/c1-23(2)20-8-5-6-9-21(20)26(4)22(23)15-12-18-10-13-19(14-11-18)25(3)17-7-16-24;1-5(2,3)4/h5-6,8-15H,7,17H2,1-4H3;(H2,1,2,3,4)/q+1;/p-2",SMCZLJWHBOXGOO-UHFFFAOYSA-L,CN(CCC#N)c1ccc(cc1)C=CC2=[N+](C)c3ccccc3C2(C)C.[O-][S]([O-])(=O)=O,-0.7741720686,0.0,1,G1,440.5450000000002,3.417880000000002,119.77000000000002,31.0,6.0,0.0,8.0,5.0,164.0,2.0,0.0,1.0,3.0,110.29999999999998,183.70283851416167,6.13743455029586e-07,1120.15671223133
A-3246,disodium [(sulfonoperoxoato sulfato)oxy]sulfonoperoxoate,"InChI=1S/2Na.H2O8S2/c;;1-9(2,3)7-8-10(4,5)6/h;;(H,1,2,3)(H,4,5,6)/q2*+1;/p-2",CHQMHPLRPQMAMX-UHFFFAOYSA-L,[Na+].[Na+].[O-][S](=O)(=O)OO[S]([O-])(=O)=O,0.48655252090000006,0.0,1,G1,238.10599999999997,-8.136999999999999,21.5644,12.0,8.0,0.0,12.0,3.0,62.0,0.0,0.0,0.0,0.0,132.85999999999999,113.03277370580616,-4.0499995882500426e-07,251.01955000865388
A-3247,sodium 4-{5-hydroxy-3-methyl-4-[(E)-2-[4-methyl-3-(phenylsulfamoyl)phenyl]diazen-1-yl]-1H-pyrazol-1-yl}benzene-1-sulfonate,"InChI=1S/C23H21N5O6S2.Na/c1-15-8-9-18(14-21(15)35(30,31)27-17-6-4-3-5-7-17)24-25-22-16(2)26-28(23(22)29)19-10-12-20(13-11-19)36(32,33)34;/h3-14,22,27H,1-2H3,(H,32,33,34);/q;+1/p-1",WYLWMAWLDZBLRN-UHFFFAOYSA-M,[Na+].CC1=NN(C(=O)C1N=Nc2ccc(C)c(c2)[S](=O)(=O)Nc3ccccc3)c4ccc(cc4)[S]([O-])(=O)=O,-0.8725523685,0.0,1,G1,549.5660000000001,0.5789200000000008,131.73369999999994,37.0,9.0,1.0,14.0,7.0,186.0,3.0,0.0,1.0,4.0,160.76,235.95073677968585,3.8024922481164194e-06,1592.2750768494975
A-3249,acrylic acid,"InChI=1S/C3H4O2/c1-2-3(4)5/h2H,1H2,(H,4,5)",NIXOWILDQLNWCW-UHFFFAOYSA-N,OC(=O)C=C,0.0059673299,0.5681601661,2,G2,72.06300000000002,0.25700000000000006,17.8328,5.0,1.0,1.0,2.0,1.0,28.0,0.0,0.0,0.0,0.0,37.3,29.735288076678287,3.204805417886435,55.91340299823497
A-3250,methanamine,"InChI=1S/CH5N/c1-2/h2H2,1H3",BAVYZALUXZFZLV-UHFFFAOYSA-N,CN,1.3686434781999999,0.08632826090000001,2,G3,31.058,-0.4251,10.111400000000001,2.0,1.0,1.0,1.0,0.0,14.0,0.0,0.0,0.0,0.0,26.02,14.079141724842266,1.0,2.0
A-3254,iron(3+) ion sodium 2-({2-[bis(carboxylatomethyl)amino]ethyl}(carboxylatomethyl)amino)acetate,"InChI=1S/C10H16N2O8.Fe.Na/c13-7(14)3-11(4-8(15)16)1-2-12(5-9(17)18)6-10(19)20;;/h1-6H2,(H,13,14)(H,15,16)(H,17,18)(H,19,20);;/q;+3;+1/p-4",MKWYFZFMAMBPQK-UHFFFAOYSA-J,[Na+].[Fe+3].[O-]C(=O)CN(CCN(CC([O-])=O)CC([O-])=O)CC([O-])=O,-0.7073891823999999,0.0,1,G1,367.04700000000014,-10.408500000000007,52.90800000000002,22.0,10.0,0.0,12.0,11.0,119.0,0.0,0.0,0.0,0.0,167.0,158.3754407016976,-1.8049992523503188e-06,327.12281476499334
A-3256,Dihydrodicyclopentadienyl acrylate,"InChI=1S/C13H16O2/c1-2-12(14)15-11-6-5-10-8-3-4-9(7-8)13(10)11/h2,5-6,8-11,13H,1,3-4,7H2",ISRJTGUYHVPAOR-UHFFFAOYSA-N,C=CC(=O)OC1C=CC2C3CCC(C3)C12,-3.7081424715,0.0,1,G1,204.26899999999995,2.3163,57.028000000000034,15.0,2.0,0.0,2.0,2.0,80.0,0.0,2.0,3.0,3.0,26.3,89.99692420518328,1.7494247234449098,331.4276544759515
A-3258,sodium prop-2-ene-1-sulfonate,"InChI=1S/C3H6O3S.Na/c1-2-3-7(4,5)6;/h2H,1,3H2,(H,4,5,6);/q;+1/p-1",DIKJULDDNQFCJG-UHFFFAOYSA-M,[Na+].[O-][S](=O)(=O)CC=C,0.6949528649,0.0,1,G1,144.12699999999998,-3.2783999999999986,24.76119999999999,8.0,3.0,0.0,5.0,2.0,42.0,0.0,0.0,0.0,0.0,57.199999999999996,70.8215678571911,0.0,147.9114705065293
A-3259,"tetrasodium 3-[(E)-2-(4-{[4-({4-[(E)-2-(4,8-disulfonatonaphthalen-2-yl)diazen-1-yl]-3-methylphenyl}amino)-6-[(2-hydroxyethyl)amino]-1,3,5-triazin-2-yl]amino}-2-methylphenyl)diazen-1-yl]naphthalene-1,5-disulfonate","InChI=1S/C39H34N10O13S4.4Na/c1-21-15-23(9-11-31(21)48-46-25-17-29-27(35(19-25)65(57,58)59)5-3-7-33(29)63(51,52)53)41-38-43-37(40-13-14-50)44-39(45-38)42-24-10-12-32(22(2)16-24)49-47-26-18-30-28(36(20-26)66(60,61)62)6-4-8-34(30)64(54,55)56;;;;/h3-12,15-20,50H,13-14H2,1-2H3,(H,51,52,53)(H,54,55,56)(H,57,58,59)(H,60,61,62)(H3,40,41,42,43,44,45);;;;/q;4*+1/p-4",YYRIJHSNZXZKJD-UHFFFAOYSA-J,[Na+].[Na+].[Na+].[Na+].Cc1cc(Nc2nc(NCCO)nc(Nc3ccc(N=Nc4cc5c(cccc5[S]([O-])(=O)=O)c(c4)[S]([O-])(=O)=O)c(C)c3)n2)ccc1N=Nc6cc7c(cccc7[S]([O-])(=O)=O)c(c6)[S]([O-])(=O)=O,-1.1748734719,0.0,1,G1,1066.954,-5.850560000000014,232.4266999999997,70.0,23.0,4.0,31.0,15.0,342.0,7.0,0.0,0.0,7.0,373.22999999999996,488.64733993065767,3.23999519243234e-06,3423.6814221878917
A-3261,"2-(6-methoxybenzofuran-2-yl)-1,3-dimethyl-5-(methylsulphonyl)1H-benzimidazolium acetate","InChI=1S/C19H20N2O4S.C2H4O2/c1-20-15-8-7-14(26(4,22)23)11-16(15)21(2)19(20)18-9-12-5-6-13(24-3)10-17(12)25-18;1-2(3)4/h5-11,19H,1-4H3;1H3,(H,3,4)",LFEGBBYAYJXRBY-UHFFFAOYSA-N,COc1ccc2cc(oc2c1)C3N(C)c4cc(ccc4[NH+]3C)[S](C)(=O)=O.CC([O-])=O,0.21257446859999998,0.0,1,G1,432.4980000000002,0.8958999999999997,110.68950000000005,30.0,7.0,1.0,9.0,3.0,160.0,3.0,0.0,1.0,4.0,104.32,174.73345272608933,5.892306280856371e-07,1197.4270108921937
A-3262,2-[4-(2-hydroxyethyl)piperazin-1-yl]ethanesulfonic acid,"InChI=1S/C8H18N2O4S.Na/c11-7-5-9-1-3-10(4-2-9)6-8-15(12,13)14;/h11H,1-8H2,(H,12,13,14);/q;+1/p-1",RDZTWEVXRGYCFV-UHFFFAOYSA-M,[Na+].OCCN1CCN(CC1)CC[S]([O-])(=O)=O,0.4318666789,0.016372126649999985,2,G3,260.291,-4.854499999999995,54.530000000000044,16.0,6.0,1.0,8.0,5.0,90.0,0.0,1.0,1.0,1.0,83.91,118.64395140043187,2.249998813500648e-06,277.76289771739926
A-3263,L-prolinamide,"InChI=1S/C5H10N2O/c6-5(8)4-2-1-3-7-4/h4,7H,1-3H2,(H2,6,8)/p+1/t4-/m0/s1",VLJNHYLEOZPXFW-BYPYZUCNSA-O,NC(=O)[C@@H]1CCC[NH2+]1,0.7853597575,0.0,1,G1,115.15600000000002,-1.8024999999999984,29.008799999999997,8.0,1.0,2.0,3.0,1.0,46.0,0.0,1.0,1.0,1.0,59.7,48.244463312551275,2.34993673877678,96.60179219723159
A-3264,"1,2,4-triazole","InChI=1S/C2H3N3/c1-3-2-5-4-1/h1-2H,(H,3,4,5)",NSPMIYGKQJPBQR-UHFFFAOYSA-N,[nH]1cncn1,1.0058274476,0.009112410099999968,2,G3,69.067,-0.19529999999999997,16.3827,5.0,2.0,1.0,3.0,0.0,26.0,1.0,0.0,0.0,1.0,41.57,29.048313070809012,3.1250000000000004,61.369930610534254
A-3265,bromide,InChI=1S/BrH/h1H,CPELXLSAUQHCOX-UHFFFAOYSA-N,[H+].[Br-],1.3775443727,0.0,1,G1,80.91199999999999,-2.8835,1.112,1.0,0.0,0.0,1.0,0.0,8.0,0.0,0.0,0.0,0.0,0.0,19.365978241846733,0.0,2.0
A-3266,sodium formate,"InChI=1S/CH2O2.Na/c2-1-3;/h1H,(H,2,3);/q;+1/p-1",HLBBKKJFGFRGMU-UHFFFAOYSA-M,[Na+].[O-]C=O,1.0125444228,0.128538698695958,7,G5,68.007,-4.629899999999999,6.064,4.0,2.0,0.0,3.0,0.0,18.0,0.0,0.0,0.0,0.0,40.129999999999995,46.10840650278127,0.0,13.509775004326936
A-3270,"benzene-1,4-diol","InChI=1S/C6H6O2/c7-5-1-2-6(8)4-3-5/h1-4,7-8H",QIGBRXMKCJKVMJ-UHFFFAOYSA-N,Oc1ccc(O)cc1,-0.1967366109,0.1297366887615641,6,G5,110.11199999999998,1.0977999999999999,29.771599999999996,8.0,2.0,2.0,2.0,0.0,42.0,1.0,0.0,0.0,1.0,40.46,47.01987062388899,3.0324555320336755,145.38833891467198
A-3273,"acid D,L-aspart","InChI=1S/C4H7NO4/c5-2(4(8)9)1-3(6)7/h2H,1,5H2,(H,6,7)(H,8,9)",CKLJMWTZIZZHCS-UHFFFAOYSA-N,NC(CC(O)=O)C(O)=O,-1.2293181873999999,0.35938414894295845,8,G5,133.10299999999998,-1.127,27.863999999999997,9.0,3.0,3.0,5.0,3.0,52.0,0.0,0.0,0.0,0.0,100.62,51.08547977251164,3.632432151939845,132.52932501298082
A-3274,ethyltriphenylphosphanium iodide,"InChI=1S/C20H20P.HI/c1-2-21(18-12-6-3-7-13-18,19-14-8-4-9-15-19)20-16-10-5-11-17-20;/h3-17H,2H2,1H3;1H/q+1;/p-1",SLAFUPJSGFVWPP-UHFFFAOYSA-M,[I-].CC[P+](c1ccccc1)(c2ccccc2)c3ccccc3,-1.7271281938,0.0,1,G1,418.2580000000001,1.0044000000000004,95.68900000000005,22.0,0.0,0.0,2.0,4.0,112.0,3.0,0.0,0.0,3.0,0.0,150.5038486374212,1.7633322772506531e-06,584.0085832964396
A-3275,ammonium trioxovanadate(1-),InChI=1S/V,LEONUFNNVUYDNQ-UHFFFAOYSA-N,[V],-0.8144249576,0.0,1,G1,50.942,-0.0025,0.0,1.0,0.0,0.0,1.0,0.0,5.0,0.0,0.0,0.0,0.0,0.0,19.376620921031517,0.0,0.0
A-3276,2-[(4-aminophenyl)amino]-5-nitrobenzene-1-sulfonic acid,"InChI=1S/C12H11N3O5S/c13-8-1-3-9(4-2-8)14-11-6-5-10(15(16)17)7-12(11)21(18,19)20/h1-7,14H,13H2,(H,18,19,20)",GSITZZUEHIPPMH-UHFFFAOYSA-N,Nc1ccc(Nc2ccc(cc2[S](O)(=O)=O)[N+]([O-])=O)cc1,-1.5982895297,0.0,1,G1,309.30300000000005,2.1673,77.04810000000002,21.0,6.0,3.0,9.0,4.0,110.0,2.0,0.0,0.0,2.0,135.56,119.65986193872217,2.476591218178952,787.040239455687
A-3278,"1,3,3-trimethyl-2-[(E)-2-(1-methyl-2-phenyl-1H-indol-3-yl)ethenyl]-3H-indol-1-ium chloride","InChI=1S/C28H27N2.ClH/c1-28(2)23-15-9-11-17-25(23)29(3)26(28)19-18-22-21-14-8-10-16-24(21)30(4)27(22)20-12-6-5-7-13-20;/h5-19H,1-4H3;1H/q+1;/p-1",LORKUZBPMQEQET-UHFFFAOYSA-M,[Cl-].Cn1c2ccccc2c(C=CC3=[N+](C)c4ccccc4C3(C)C)c1c5ccccc5,-1.743927996,0.0,1,G1,426.99100000000016,3.5687000000000033,127.70840000000001,31.0,1.0,0.0,3.0,3.0,156.0,4.0,0.0,1.0,5.0,7.9399999999999995,190.12887792543407,2.311997308279892e-06,1323.898659434224
A-3279,"3,4-dihydro-2H-pyran","InChI=1S/C5H8O/c1-2-4-6-5-3-1/h2,4H,1,3,5H2",BUDQDWGNQVEFAC-UHFFFAOYSA-N,C1COC=CC1,-1.0383982131,0.0,1,G1,84.118,1.3105,24.32599999999999,6.0,1.0,0.0,1.0,0.0,34.0,0.0,0.0,1.0,1.0,9.23,37.617130529209376,2.2551447208210704,48.95878455585174
A-3281,"octane-1,2-diol","InChI=1S/C8H18O2/c1-2-3-4-5-6-8(10)7-9/h8-10H,2-7H2,1H3",AEIJTFQOBWATKX-UHFFFAOYSA-N,CCCCCCC(O)CO,-1.2899752166,0.0,1,G1,146.23,1.3099999999999998,41.851600000000005,10.0,2.0,2.0,2.0,6.0,62.0,0.0,0.0,0.0,0.0,40.46,62.88231333299782,2.8861627976234385,64.27793097483524
A-3284,ethylbis(propan-2-yl)amine,"InChI=1S/C8H19N/c1-6-9(7(2)3)8(4)5/h7-8H,6H2,1-5H3",JGFZNNIVVJXRND-UHFFFAOYSA-N,CCN(C(C)C)C(C)C,-1.2416022633,0.12369326058578907,3,G5,129.24699999999999,2.1250999999999998,42.652000000000015,9.0,1.0,0.0,1.0,3.0,56.0,0.0,0.0,0.0,0.0,3.24,59.053679498809174,3.677615681908372,58.96788691072806
A-3289,"disodium 4,8-diamino-1,5-dihydroxy-9,10-dioxo-9,10-dihydroanthracene-2,6-disulfonate","InChI=1S/C14H10N2O10S2.Na/c15-3-1-5(27(21,22)23)11(17)9-7(3)13(19)10-8(14(9)20)4(16)2-6(12(10)18)28(24,25)26;/h1-2,17-18H,15-16H2,(H,21,22,23)(H,24,25,26);",CNFAVWPHWCKUOM-UHFFFAOYSA-N,[Na].Nc1cc(c(O)c2C(=O)c3c(N)cc(c(O)c3C(=O)c12)[S](O)(=O)=O)[S](O)(=O)=O,-1.7991126191,0.0,1,G1,453.36200000000014,-0.8497999999999997,97.28659999999999,29.0,10.0,6.0,15.0,2.0,149.0,2.0,0.0,1.0,3.0,235.37999999999997,184.47451514212327,2.9999972170026673e-06,1229.6418178895576
A-3290,"propan-2-yl 2,2,2-trifluoroacetate","InChI=1S/C5H7F3O2/c1-3(2)10-4(9)5(6,7)8/h3H,1-2H3",ASAXRKSDVDALDT-UHFFFAOYSA-N,CC(C)OC(=O)C(F)(F)F,-1.336078753,0.07823663191400945,4,G5,156.10299999999998,1.5003000000000002,27.28299999999999,10.0,2.0,0.0,5.0,1.0,60.0,0.0,0.0,0.0,0.0,26.3,55.970693023745326,3.867280781013407,127.3449779679464
A-3291,disodium 5-({4-[(2-bromoacryloyl)amino]-2-sulfonatophenyl}diazenyl)-4-hydroxy-6-(methylamino)naphthalene-2-sulfonate,"InChI=1S/C20H17BrN4O8S2.2Na/c1-10(21)20(27)23-12-4-6-14(17(8-12)35(31,32)33)24-25-19-15(22-2)5-3-11-7-13(34(28,29)30)9-16(26)18(11)19;;/h3-9,24-25H,1H2,2H3,(H,23,27)(H,28,29,30)(H,31,32,33);;/q;2*+1/p-2",IJUMYNZGVPFZDO-UHFFFAOYSA-L,[Na+].[Na+].CN=C1C=CC2=CC(=CC(=O)C2=C1NNc3ccc(NC(=O)C(Br)=C)cc3[S]([O-])(=O)=O)[S]([O-])(=O)=O,-1.9476532093,0.0,1,G1,629.3780000000003,-4.804799999999993,128.25549999999998,37.0,11.0,3.0,17.0,7.0,184.0,1.0,0.0,2.0,3.0,196.98999999999998,264.87062338122297,3.4224969828069235e-06,1545.338427702684
A-3292,sodium 3-[[4-[(2-ethoxy-5-methylphenyl)azo]-1-naphthyl]azo]benzenesulphonate,"InChI=1S/C25H22N4O4S.Na/c1-3-33-25-14-11-17(2)15-24(25)29-28-23-13-12-22(20-9-4-5-10-21(20)23)27-26-18-7-6-8-19(16-18)34(30,31)32;/h4-16H,3H2,1-2H3,(H,30,31,32);/q;+1/p-1",PHBKXNWUWOCVEI-UHFFFAOYSA-M,[Na+].CCOc1ccc(C)cc1N=Nc2ccc(N=Nc3cccc(c3)[S]([O-])(=O)=O)c4ccccc24,-1.8471355444,0.0,1,G1,496.5240000000002,4.285820000000004,129.0532,35.0,8.0,0.0,10.0,7.0,172.0,4.0,0.0,0.0,4.0,115.87,225.37121895778765,3.4224942588433547e-06,1521.4433281179968
A-3293,(2E)-but-2-enedioic acid,"InChI=1S/C4H4O4/c5-3(6)1-2-4(7)8/h1-2H,(H,5,6)(H,7,8)/b2-1+",VZCYOOQTPOCHFL-OWOJBTEDSA-N,OC(=O)\C=C\C(O)=O,-1.2196294277,2.8987001527860627,6,G4,116.07199999999999,-0.28819999999999985,24.411599999999993,8.0,2.0,2.0,4.0,2.0,44.0,0.0,0.0,0.0,0.0,74.6,45.05598604331467,3.668626461933803,118.97373660251154
A-3294,1-[(2-hydroxypropyl)(4-methylphenyl)amino]propan-2-ol,"InChI=1S/C13H21NO2/c1-10-4-6-13(7-5-10)14(8-11(2)15)9-12(3)16/h4-7,11-12,15-16H,8-9H2,1-3H3",JFZVSHAMRZPOPA-UHFFFAOYSA-N,CC(O)CN(CC(C)O)c1ccc(C)cc1,-1.5038218002000001,0.0,1,G1,223.316,1.56302,66.75360000000005,16.0,3.0,2.0,3.0,5.0,90.0,1.0,0.0,0.0,1.0,43.7,97.33429909486861,2.7811127149176116,296.21356211444805
A-3296,diethyl sulfate,"InChI=1S/C4H10O4S/c1-3-7-9(5,6)8-4-2/h3-4H2,1-2H3",DENRZWYUOJLTMF-UHFFFAOYSA-N,CCO[S](=O)(=O)OCC,-1.3429497185,0.0,1,G1,154.18699999999998,0.30420000000000014,32.17179999999999,9.0,4.0,0.0,5.0,4.0,56.0,0.0,0.0,0.0,0.0,52.60000000000001,55.10457396393576,3.734562819666556,135.95057052383706
A-3297,"sodium 1-amino-4-({4-[(N-methyl4-methylbenzenesulfonamido)methyl]phenyl}amino)-9,10-dioxo-9,10-dihydroanthracene-2-sulfonate","InChI=1S/C29H25N3O7S2.Na/c1-17-7-13-20(14-8-17)40(35,36)32(2)16-18-9-11-19(12-10-18)31-23-15-24(41(37,38)39)27(30)26-25(23)28(33)21-5-3-4-6-22(21)29(26)34;/h3-15,31H,16,30H2,1-2H3,(H,37,38,39);/q;+1/p-1",JOXJJQNGIBRWJT-UHFFFAOYSA-M,[Na+].CN(Cc1ccc(Nc2cc(c(N)c3C(=O)c4ccccc4C(=O)c23)[S]([O-])(=O)=O)cc1)[S](=O)(=O)c5ccc(C)cc5,-1.9428219908000002,0.0,1,G1,613.6490000000001,0.8250200000000025,151.6810999999998,42.0,9.0,2.0,13.0,7.0,210.0,4.0,0.0,1.0,5.0,166.76999999999998,265.1970074322222,4.049990428523513e-06,1942.6683381518878
A-3299,potassium trifluoroacetate,"InChI=1S/C2HF3O2.K/c3-2(4,5)1(6)7;/h(H,6,7);/q;+1/p-1",CUNPJFGIODEJLQ-UHFFFAOYSA-M,[K+].[O-]C(=O)C(F)(F)F,0.6610693015,0.0,1,G1,152.112,-3.6973999999999987,11.062000000000001,8.0,2.0,0.0,6.0,0.0,42.0,0.0,0.0,0.0,0.0,40.129999999999995,85.47911989860722,0.0,87.77443751081735
A-3300,phosphorofluoridic acid,"InChI=1S/FH2O3P.2Na/c1-5(2,3)4;;/h(H2,2,3,4);;/q;2*+1/p-2",BFDWBSRJQZPEEB-UHFFFAOYSA-L,[Na+].[Na+].[O-][P]([O-])(F)=O,0.6844005874,0.0,1,G1,143.949,-7.2074,8.714500000000001,7.0,3.0,0.0,7.0,0.0,32.0,0.0,0.0,0.0,0.0,63.19,84.54039226328499,-7.999999807500004e-08,59.070496343496615
A-3301,(1-hydroxy-1-phosphonoethyl)phosphonic acid,"InChI=1S/CH2O2/c2-1-3/h1H,(H,2,3)",BDAGIHXWWSANSR-UHFFFAOYSA-N,OC=O,1.1758552936,0.0805723532,2,G3,46.025,-0.29919999999999997,8.6928,3.0,1.0,1.0,2.0,0.0,18.0,0.0,0.0,0.0,0.0,37.3,17.69500688006933,2.1874960973678963,10.264662506490405
A-3303,diammonium dihydrogen 2-({2-[bis(carboxylatomethyl)amino]ethyl}(carboxylatomethyl)amino)acetate,"InChI=1S/C10H16N2O8.2H3N/c13-7(14)3-11(4-8(15)16)1-2-12(5-9(17)18)6-10(19)20;;/h1-6H2,(H,13,14)(H,15,16)(H,17,18)(H,19,20);2*1H3",KYQODXQIAJFKPH-UHFFFAOYSA-N,[NH4+].[NH4+].OC(=O)CN(CCN(CC(O)=O)CC([O-])=O)CC([O-])=O,0.3226990562,0.0,1,G1,326.3060000000001,-3.9881999999999973,70.13520000000001,22.0,8.0,4.0,12.0,11.0,130.0,0.0,0.0,0.0,0.0,234.33999999999997,125.63792153465816,-1.8049992523503188e-06,321.12281476499334
A-3306,3-(dodecyldimethylazaniumyl)-2-hydroxypropane-1-sulfonate,"InChI=1S/C17H37NO4S/c1-4-5-6-7-8-9-10-11-12-13-14-18(2,3)15-17(19)16-23(20,21)22/h17,19H,4-16H2,1-3H3",DDGPBVIAYDDWDH-UHFFFAOYSA-N,CCCCCCCCCCCC[N+](C)(C)CC(O)C[S]([O-])(=O)=O,0.2865181043,0.0,1,G1,351.55300000000005,2.889800000000001,94.25740000000008,23.0,4.0,1.0,6.0,15.0,140.0,0.0,0.0,0.0,0.0,77.43,142.97099977721066,3.6217856614797554,382.0546057445979
A-3312,potassium bromide,InChI=1S/BrH.K/h1H;/q;+1/p-1,IOLCXVTUBQKXJR-UHFFFAOYSA-M,[K+].[Br-],0.7556754335,0.0,1,G1,119.002,-5.992,0.0,2.0,0.0,0.0,2.0,0.0,8.0,0.0,0.0,0.0,0.0,0.0,66.80374456771379,0.0,2.0
A-3313,2-methyl-5-nitrobenzene-1-sulfonic acid,"InChI=1S/C7H7NO5S/c1-5-2-3-6(8(9)10)4-7(5)14(11,12)13/h2-4H,1H3,(H,11,12,13)",ZDTXQHVBLWYPHS-UHFFFAOYSA-N,Cc1ccc(cc1[S](O)(=O)=O)[N+]([O-])=O,0.4924399529,0.0,1,G1,217.202,1.1499200000000003,47.64800000000001,14.0,4.0,1.0,7.0,2.0,76.0,1.0,0.0,0.0,1.0,97.50999999999999,80.07795696643399,3.4429387680106793,478.8535635303721
A-3314,chromium(3+) ion acetate dihydroxide,"InChI=1S/3C2H4O2.Cr/c3*1-2(3)4;/h3*1H3,(H,3,4);/q;;;+3/p-3",WYYQVWLEPYFFLP-UHFFFAOYSA-K,[Cr+3].CC([O-])=O.CC([O-])=O.CC([O-])=O,0.4692256086,0.0,1,G1,229.12799999999996,-3.7338999999999976,32.04299999999999,13.0,6.0,0.0,7.0,0.0,75.0,0.0,0.0,0.0,0.0,120.38999999999999,86.3164044555771,-4.4999999833333336e-08,114.67414136612275
A-3316,(2R)-2-(2-chlorophenyl)-2-hydroxyacetic acid,"InChI=1S/C8H7ClO3/c9-6-4-2-1-3-5(6)7(10)8(11)12/h1-4,7,10H,(H,11,12)/t7-/m1/s1",RWOLDZZTBNYTMS-SSDOTTSWSA-N,O[C@@H](C(O)=O)c1ccccc1Cl,-0.43902790049999996,0.0,1,G1,186.594,1.458,44.04760000000002,12.0,2.0,2.0,4.0,2.0,64.0,1.0,0.0,0.0,1.0,57.53,74.21454317960763,3.0227910918592995,298.109376434433
A-3318,disodium 6-hydroxy-5-[(E)-2-{4-[(E)-2-[4-(phenylamino)-3-sulfonatophenyl]diazen-1-yl]naphthalen-1-yl}diazen-1-yl]naphthalene-2-sulfonate,"InChI=1S/C32H23N5O7S2.2Na/c38-30-17-10-20-18-23(45(39,40)41)12-13-24(20)32(30)37-36-28-16-15-27(25-8-4-5-9-26(25)28)35-34-22-11-14-29(31(19-22)46(42,43)44)33-21-6-2-1-3-7-21;;/h1-19,33,36H,(H,39,40,41)(H,42,43,44);;/q;2*+1/p-2/b35-34?,37-32+;;",IQEHCFKNGZTEDA-LAEQOQJSSA-L,[Na+].[Na+].[O-][S](=O)(=O)c1ccc2c(C=CC(=O)/C2=N/Nc3ccc(N=Nc4ccc(Nc5ccccc5)c(c4)[S]([O-])(=O)=O)c6ccccc36)c1,-1.0156300044,0.06986003379999994,2,G3,697.6620000000001,0.22710000000000652,170.85979999999975,48.0,12.0,2.0,16.0,8.0,230.0,5.0,0.0,1.0,6.0,192.60999999999999,319.7062386246463,2.6009961470834326e-06,2350.235813706178
A-3319,caesium(1+) ion iodide,InChI=1S/Cs.HI/h;1H/q+1;/p-1,XQPRBTXUXXVTKB-UHFFFAOYSA-M,[I-].[Cs+],0.4112261076,0.0,1,G1,259.80899999999997,-5.992,0.0,2.0,0.0,0.0,2.0,0.0,8.0,0.0,0.0,0.0,0.0,0.0,89.81705932153318,0.0,2.0
A-3320,"1-ethenyl-3-methyl-2,3-dihydro-1H-imidazol-1-ium chloride","InChI=1S/C6H10N2.ClH/c1-3-8-5-4-7(2)6-8;/h3-5H,1,6H2,2H3;1H",QARDSQYLYGISQN-UHFFFAOYSA-N,[Cl-].CN1C[NH+](C=C)C=C1,0.6585802853,0.0,1,G1,146.621,-3.607099999999998,32.92969999999999,9.0,1.0,1.0,3.0,1.0,52.0,0.0,0.0,1.0,1.0,7.680000000000001,61.851684974871,6.399999148000115e-07,122.22626787690943