ID,Name,InChI,InChIKey,SMILES,Solubility,SD,Ocurrences,Group,MolWt,MolLogP,MolMR,HeavyAtomCount,NumHAcceptors,NumHDonors,NumHeteroatoms,NumRotatableBonds,NumValenceElectrons,NumAromaticRings,NumSaturatedRings,NumAliphaticRings,RingCount,TPSA,LabuteASA,BalabanJ,BertzCT
A-3847,3-acetyloxolan-2-one,"InChI=1S/C6H8O3/c1-4(7)5-2-3-9-6(5)8/h5H,2-3H2,1H3",OMQHDIHZSDEIFH-UHFFFAOYSA-N,CC(=O)C1CCOC1=O,0.3975093207,0.10205466035,2,G3,128.127,0.13850000000000007,29.746999999999986,9.0,3.0,0.0,3.0,1.0,50.0,0.0,1.0,1.0,1.0,43.370000000000005,52.99471987587776,2.597596850254139,150.38196255841365
A-3850,"sodium 3,5-bis(methoxycarbonyl)benzene-1-sulfonate","InChI=1S/C10H10O7S.Na/c1-16-9(11)6-3-7(10(12)17-2)5-8(4-6)18(13,14)15;/h3-5H,1-2H3,(H,13,14,15);/q;+1/p-1",LLHSEQCZSNZLRI-UHFFFAOYSA-M,[Na+].COC(=O)c1cc(cc(c1)[S]([O-])(=O)=O)C(=O)OC,-0.9664819924,0.0,1,G1,296.232,-2.832099999999998,57.084200000000024,19.0,7.0,0.0,9.0,3.0,98.0,1.0,0.0,0.0,1.0,109.8,131.48334186893726,3.239998428600798e-06,559.645773030434
A-3852,sodium chloride,InChI=1S/ClH.Na/h1H;/q;+1/p-1,FAPWRFPIFSIZLT-UHFFFAOYSA-M,[Na+].[Cl-],0.7343267611,0.0,1,G1,58.443,-5.992,0.0,2.0,0.0,0.0,2.0,0.0,8.0,0.0,0.0,0.0,0.0,0.0,41.93497063516508,0.0,2.0
A-3853,dilithium pentanedioate,"InChI=1S/C5H8O4.2Li/c6-4(7)2-1-3-5(8)9;;/h1-3H2,(H,6,7)(H,8,9);;/q;2*+1/p-2",PLYZFCVUMQOYCR-UHFFFAOYSA-L,[Li+].[Li+].[O-]C(=O)CCCC([O-])=O,0.34275407659999996,0.0,1,G1,143.981,-8.335500000000003,23.86499999999999,11.0,4.0,0.0,6.0,4.0,52.0,0.0,0.0,0.0,0.0,80.25999999999999,88.7056622417604,-3.199999663000036e-07,111.65082519882903
A-3854,"4-hydroxy-2,5-dimethyl-2,3-dihydrofuran-3-one","InChI=1S/C6H8O3/c1-3-5(7)6(8)4(2)9-3/h3,8H,1-2H3",INAXVXBDKKUCGI-UHFFFAOYSA-N,CC1OC(=C(O)C1=O)C,0.3906698962,0.0,1,G1,128.12699999999995,0.7636999999999998,30.882799999999992,9.0,3.0,1.0,3.0,0.0,50.0,0.0,0.0,1.0,1.0,46.53,52.93782849584576,2.8730079388861545,180.74199426319834
A-3855,5-benzoyl-4-hydroxy-2-methoxybenzene-1-sulfonic acid,"InChI=1S/C14H12O6S.Na/c1-20-12-8-11(15)10(7-13(12)21(17,18)19)14(16)9-5-3-2-4-6-9;/h2-8,15H,1H3,(H,17,18,19);/q;+1/p-1",KJCLYACXIWMFCC-UHFFFAOYSA-M,[Na+].COc1cc(O)c(cc1[S]([O-])(=O)=O)C(=O)c2ccccc2,-0.022384851,0.0,1,G1,330.293,-1.4600999999999982,72.49650000000003,22.0,6.0,1.0,8.0,4.0,110.0,2.0,0.0,0.0,2.0,103.72999999999999,149.3297182688534,2.4199984602760167e-06,786.4804032594743
A-3858,"2,2,4-trimethylpentane-1,3-diol","InChI=1S/C8H18O2/c1-6(2)7(10)8(3,4)5-9/h6-7,9-10H,5H2,1-4H3",JCTXKRPTIMZBJT-UHFFFAOYSA-N,CC(C)C(O)C(C)(C)CO,-0.6667259261999999,0.10978703690000002,2,G3,146.23,1.0218,41.711600000000004,10.0,2.0,2.0,2.0,3.0,62.0,0.0,0.0,0.0,0.0,40.46,62.88231333299781,4.0341182411814644,97.43071362054202
A-3865,2-Ethylhexyl (2S)-2-hydroxypropanoate,"InChI=1S/C11H22O3/c1-4-6-7-10(5-2)8-14-11(13)9(3)12/h9-10,12H,4-8H2,1-3H3/t9-,10?/m0/s1",FECDACOUYKFOOP-RGURZIINSA-N,CCCCC(CC)COC(=O)[C@H](C)O,-2.6735257097,0.0,1,G1,202.29399999999998,2.1268000000000007,55.94580000000005,14.0,3.0,1.0,3.0,7.0,84.0,0.0,0.0,0.0,0.0,46.53,86.45797325354226,3.661036491276099,154.61163365355597
A-3866,cyclopentanone,InChI=1S/C5H8O/c6-5-3-1-2-4-5/h1-4H2,BGTOWKSIORTVQH-UHFFFAOYSA-N,O=C1CCCC1,0.5536775573,0.0,1,G1,84.11800000000001,1.1295,23.47499999999999,6.0,1.0,0.0,1.0,0.0,34.0,0.0,1.0,1.0,1.0,17.07,37.35471043193051,2.3673518510178746,58.33869642763737
A-3867,N-methylmethanaminium chloride,"InChI=1S/C2H7N.ClH/c1-3-2;/h3H,1-2H3;1H",IQDGSYLLQPDQDV-UHFFFAOYSA-N,[H+].[Cl-].CNC,1.5657185919,0.0,1,G1,81.546,-3.0478999999999985,16.0957,4.0,1.0,1.0,2.0,0.0,28.0,0.0,0.0,0.0,0.0,12.03,34.29194694787915,-1.9999999750000003e-08,9.609640474436812
A-3868,hydrogen sulfide; manganese,InChI=1S/Mn.H2S/h;1H2,TWJXYBSUGSKHPM-UHFFFAOYSA-N,S.[Mn],-4.1599117564,0.0,1,G1,89.021,0.11030000000000006,10.381,2.0,0.0,0.0,2.0,0.0,15.0,0.0,0.0,0.0,0.0,0.0,31.156952487091907,0.0,2.0
A-3869,methyl formate,"InChI=1S/C2H4O2/c1-4-2-3/h2H,1H3",TZIHFWKZFHZASV-UHFFFAOYSA-N,COC=O,0.6985937788,0.057696709349999986,2,G3,60.05200000000001,-0.2108000000000001,13.073,4.0,2.0,0.0,2.0,1.0,24.0,0.0,0.0,0.0,0.0,26.3,24.379260471776803,2.2968352619191386,18.0
A-3870,"trisodium 8-hydroxypyrene-1,3,6-trisulfonate","InChI=1S/C16H10O10S3.3Na/c17-11-5-12(27(18,19)20)8-3-4-10-14(29(24,25)26)6-13(28(21,22)23)9-2-1-7(11)15(8)16(9)10;;;/h1-6,17H,(H,18,19,20)(H,21,22,23)(H,24,25,26);;;/q;3*+1/p-3",KXXXUIKPSVVSAW-UHFFFAOYSA-K,[Na+].[Na+].[Na+].Oc1cc(c2ccc3c4c(ccc1c24)c(cc3[S]([O-])(=O)=O)[S]([O-])(=O)=O)[S]([O-])(=O)=O,-0.242535631,0.0,1,G1,524.3930000000003,-7.986100000000003,95.70040000000002,32.0,10.0,1.0,16.0,3.0,152.0,4.0,0.0,0.0,4.0,191.82999999999998,248.37576224529198,1.7066661792001451e-06,1630.1121939404113
A-3872,"4-methyl-3a,4,7,7a-tetrahydro-2-benzofuran-1,3-dione","InChI=1S/C9H10O3/c1-5-3-2-4-6-7(5)9(11)12-8(6)10/h2-3,5-7H,4H2,1H3",XPEKVUUBSDFMDR-UHFFFAOYSA-N,CC1C=CCC2C1C(=O)OC2=O,-0.7362684615999999,0.0,1,G1,166.176,0.8982,41.000000000000014,12.0,3.0,0.0,3.0,0.0,64.0,0.0,1.0,2.0,2.0,43.370000000000005,70.3941120333541,2.323734961760993,266.94721312873537
A-3873,N-isopropyl-2-methylacrylamide,"InChI=1S/C7H13NO/c1-5(2)7(9)8-6(3)4/h6H,1H2,2-4H3,(H,8,9)",YQIGLEFUZMIVHU-UHFFFAOYSA-N,CC(C)NC(=O)C(C)=C,-0.6201428843,0.0,1,G1,127.18699999999998,1.0871,38.0927,9.0,1.0,1.0,2.0,2.0,52.0,0.0,0.0,0.0,0.0,29.1,55.950684965676736,3.6474246915364996,126.87784055857759
A-3874,"disodium 2,2'-ethene-1,2-diylbis[5-({4-anilino-6-[(2-hydroxyethyl)amino]-1,3,5-triazin-2-yl}amino)benzenesulfonate]","InChI=1S/C36H36N12O8S2.2Na/c49-19-17-37-31-43-33(39-25-7-3-1-4-8-25)47-35(45-31)41-27-15-13-23(29(21-27)57(51,52)53)11-12-24-14-16-28(22-30(24)58(54,55)56)42-36-46-32(38-18-20-50)44-34(48-36)40-26-9-5-2-6-10-26;;/h1-16,21-22,49-50H,17-20H2,(H,51,52,53)(H,54,55,56)(H3,37,39,41,43,45,47)(H3,38,40,42,44,46,48);;/q;2*+1/p-2/b12-11+;;",HIMNALZNLAOESZ-YHPRVSEPSA-L,[Na+].[Na+].OCCNc1nc(Nc2ccccc2)nc(Nc3ccc(\C=C\c4ccc(Nc5nc(NCCO)nc(Nc6ccccc6)n5)cc4[S]([O-])(=O)=O)c(c3)[S]([O-])(=O)=O)n1,-1.4592143997,0.0,1,G1,872.8580000000002,-2.173999999999989,214.55819999999977,60.0,20.0,8.0,24.0,18.0,300.0,6.0,0.0,0.0,6.0,304.38,388.5065235612368,3.9689907482100366e-06,2455.93598466154
A-3875,2-(2-ethoxyethoxy)-2-methylpropane,"InChI=1S/C8H18O2/c1-5-9-6-7-10-8(2,3)4/h5-7H2,1-4H3",NUNQKTCKURIZQX-UHFFFAOYSA-N,CCOCCOC(C)(C)C,-0.6879152253,0.045540234700000015,2,G3,146.23,1.838,42.198000000000015,10.0,2.0,0.0,2.0,4.0,62.0,0.0,0.0,0.0,0.0,18.46,63.52093628761955,3.0437584089734577,73.81700155456723
A-3876,3-methoxybutyl acetate,"InChI=1S/C7H14O3/c1-6(9-3)4-5-10-7(2)8/h6H,4-5H2,1-3H3",QMYGFTJCQFEDST-UHFFFAOYSA-N,COC(C)CCOC(C)=O,-0.6877845281999999,0.4728193796494214,3,G5,146.18599999999998,0.9744999999999999,37.721000000000004,10.0,3.0,0.0,3.0,4.0,60.0,0.0,0.0,0.0,0.0,35.53,61.31751627326672,3.110465475982731,101.02434166397533
A-3877,"Sulfuric acid, mono-C12-18-alkyl esters, sodium salts","InChI=1S/C15H32O4S.Na/c1-2-3-4-5-6-7-8-9-10-11-12-13-14-15-19-20(16,17)18;/h2-15H2,1H3,(H,16,17,18);/q;+1/p-1",SMECTXYFLVLAJE-UHFFFAOYSA-M,[Na+].CCCCCCCCCCCCCCCO[S]([O-])(=O)=O,-1.042005529,0.46040937695000006,2,G3,330.46599999999995,1.5583999999999996,81.34420000000007,21.0,4.0,0.0,6.0,15.0,122.0,0.0,0.0,0.0,0.0,66.43,153.2130253676996,0.0,294.0487426807373
A-3878,carbamimidoylsulfinic acid,"InChI=1S/CH4N2O2S/c2-1(3)6(4)5/h(H3,2,3)(H,4,5)",FYOWZTWVYZOZSI-UHFFFAOYSA-N,NC(=N)[S](O)=O,-0.5567928158,0.0,1,G1,108.12199999999999,-0.8984299999999998,22.6853,6.0,2.0,3.0,5.0,0.0,36.0,0.0,0.0,0.0,0.0,87.17000000000002,37.14198455593701,3.5677034550432034,77.5488750216347
A-3880,tert-butyl 2-methylpropaneperoxoate,"InChI=1S/C8H16O3/c1-6(2)7(9)10-11-8(3,4)5/h6H,1-5H3",PFBLRDXPNUJYJM-UHFFFAOYSA-N,CC(C)C(=O)OOC(C)(C)C,-1.6070025668,0.0,1,G1,160.21299999999997,1.9157,41.768000000000015,11.0,3.0,0.0,3.0,2.0,66.0,0.0,0.0,0.0,0.0,35.53,67.6117537034016,3.636616381160675,132.7628219010314
A-3881,"(2,2-dimethoxyethyl)benzene","InChI=1S/C10H14O2/c1-11-10(12-2)8-9-6-4-3-5-7-9/h3-7,10H,8H2,1-2H3",WNJSKZBEWNVKGU-UHFFFAOYSA-N,COC(Cc1ccccc1)OC,-1.6296186709,0.0,1,G1,166.21999999999997,1.8479999999999999,47.95200000000004,12.0,2.0,0.0,2.0,4.0,66.0,1.0,0.0,0.0,1.0,18.46,73.11826203609715,2.508062494967292,204.33838110546364
A-3882,"1,3,5-triazine-2,4,6-triamine phosphate","InChI=1S/C3H6N6.H3O4P/c4-1-7-2(5)9-3(6)8-1;1-5(2,3)4/h(H6,4,5,6,7,8,9);(H3,1,2,3,4)",XFZRQAZGUOTJCS-UHFFFAOYSA-N,Nc1nc(N)nc(N)n1.O[P](O)(O)=O,-1.7594101934,0.056971676149999984,2,G3,224.11700000000002,-2.3103999999999996,47.327099999999994,14.0,7.0,6.0,11.0,0.0,80.0,1.0,0.0,0.0,1.0,194.48999999999995,78.048162237967,2.917777713588273e-07,292.1874109046766
A-3883,"2H,4H,4aH,5H,9bH-indeno[1,2-d][1,3]dioxine","InChI=1S/C11H12O2/c1-2-4-10-8(3-1)5-9-6-12-7-13-11(9)10/h1-4,9,11H,5-7H2",CZSXBBWOROMVEW-UHFFFAOYSA-N,C1OCC2Cc3ccccc3C2O1,-1.6560932729,0.0,1,G1,176.21499999999997,1.9043,48.281000000000034,13.0,2.0,0.0,2.0,0.0,68.0,1.0,1.0,2.0,3.0,18.46,77.47154184343529,2.0078005608417393,321.6212469811061
A-3884,"3-[(4-hydroxy-3-methoxyphenyl)methyl]pentane-2,4-dione","InChI=1S/C13H16O4/c1-8(14)11(9(2)15)6-10-4-5-12(16)13(7-10)17-3/h4-5,7,11,16H,6H2,1-3H3",IFGDRUTWCITGHG-UHFFFAOYSA-N,COc1cc(CC(C(C)=O)C(C)=O)ccc1O,-1.7863659491,0.0,1,G1,236.267,1.7374999999999998,63.21480000000004,17.0,4.0,1.0,4.0,5.0,92.0,1.0,0.0,0.0,1.0,63.60000000000001,100.21682110206365,2.9378566391048997,423.0456447344207
A-3889,"(2R,3R,4R,5S)-2-(hydroxymethyl)piperidine-3,4,5-triol","InChI=1S/C6H13NO4/c8-2-3-5(10)6(11)4(9)1-7-3/h3-11H,1-2H2/t3-,4+,5-,6-/m1/s1",LXBIFEVIBLOUGU-JGWLITMVSA-N,OC[C@H]1NC[C@H](O)[C@@H](O)[C@@H]1O,0.40435204280000003,0.0,1,G1,163.173,-2.9667999999999988,36.896899999999995,11.0,5.0,5.0,5.0,1.0,66.0,0.0,1.0,1.0,1.0,92.95,64.28492763867544,2.516424270605089,129.7506906689389
A-3890,diethyl chloromalonate,"InChI=1S/C7H11ClO4/c1-3-11-6(9)5(8)7(10)12-4-2/h5H,3-4H2,1-2H3",WLWCQKMQYZFTDR-UHFFFAOYSA-N,CCOC(=O)C(Cl)C(=O)OCC,-1.7209723549,0.0,1,G1,194.61399999999998,0.7199999999999999,42.907000000000025,12.0,4.0,0.0,5.0,4.0,70.0,0.0,0.0,0.0,0.0,52.60000000000001,75.78230460019216,3.91026523675175,150.7893110651069
A-3891,sodium 6-amino-4-hydroxy-5-[(E)-2-[2-(trifluoromethyl)phenyl]diazen-1-yl]naphthalene-2-sulfonate,"InChI=1S/C17H12F3N3O4S.Na/c18-17(19,20)11-3-1-2-4-13(11)22-23-16-12(21)6-5-9-7-10(28(25,26)27)8-14(24)15(9)16;/h1-8,21-23H,(H,25,26,27);/q;+1/p-1",GVCNKWIFAPJNDM-UHFFFAOYSA-M,[Na+].[O-][S](=O)(=O)C1=CC(=O)C2=C(NNc3ccccc3C(F)(F)F)C(=N)C=CC2=C1,-2.0686300615,0.0,1,G1,433.3430000000001,-0.5922299999999978,92.96530000000003,29.0,7.0,3.0,12.0,4.0,146.0,1.0,0.0,2.0,3.0,122.18,185.13106727035512,2.9999964851709015e-06,1118.9774529529568
A-3892,2-(2-{2-[(2-methylprop-2-enoyl)oxy]ethoxy}ethoxy)ethyl 2-methylprop-2-enoate,"InChI=1S/C14H22O6/c1-11(2)13(15)19-9-7-17-5-6-18-8-10-20-14(16)12(3)4/h1,3,5-10H2,2,4H3",HWSSEYVMGDIFMH-UHFFFAOYSA-N,CC(=C)C(=O)OCCOCCOCCOC(=O)C(C)=C,-1.9005552518000002,0.0,1,G1,286.324,1.2582,73.18400000000004,20.0,6.0,0.0,6.0,11.0,114.0,0.0,0.0,0.0,0.0,71.06,118.88151756873201,3.2524378581178746,313.57329118963696
A-3893,4-[(4-amino-3-methylcyclohexyl)methyl]-2-methylcyclohexan-1-amine,"InChI=1S/C15H30N2/c1-10-7-12(3-5-14(10)16)9-13-4-6-15(17)11(2)8-13/h10-15H,3-9,16-17H2,1-2H3",IGSBHTZEJMPDSZ-UHFFFAOYSA-N,CC1CC(CCC1N)CC2CCC(N)C(C)C2,-1.8210383612999999,0.13143493135119436,3,G5,238.41899999999998,2.903500000000001,73.57780000000005,17.0,2.0,2.0,2.0,2.0,100.0,0.0,2.0,2.0,2.0,52.04,106.51655971634902,1.7754724185565798,217.07631885586423
A-3895,"2,5-dimethylphenol","InChI=1S/C8H10O/c1-6-3-4-7(2)8(9)5-6/h3-5,9H,1-2H3",NKTOLZVEWDHZMU-UHFFFAOYSA-N,Cc1ccc(C)c(O)c1,-1.5375827569,0.02347201614999994,2,G3,122.16699999999999,2.0090399999999997,37.5808,9.0,1.0,1.0,1.0,0.0,48.0,1.0,0.0,0.0,1.0,20.23,54.95552110048619,3.1716780304409156,215.80766205433727
A-3896,"{[(2R,3S,4R,5R)-5-(6-amino-9H-purin-9-yl)-3,4-dihydroxyoxolan-2-yl]methoxy}phosphonic acid","InChI=1S/C10H14N5O7P/c11-8-5-9(13-2-12-8)15(3-14-5)10-7(17)6(16)4(22-10)1-21-23(18,19)20/h2-4,6-7,10,16-17H,1H2,(H2,11,12,13)(H2,18,19,20)",UDMBCSSLTHHNCD-UHFFFAOYSA-N,Nc1ncnc2n(cnc12)C3OC(CO[P](O)(O)=O)C(O)C3O,-1.9953026193999999,0.22735130969999995,2,G3,347.224,-1.8630000000000004,73.65509999999999,23.0,10.0,5.0,13.0,4.0,126.0,2.0,1.0,1.0,3.0,186.07,128.30354975942075,1.8511475274909786,763.1378284373786
A-3897,"1,1,2-trichloroethane","InChI=1S/C2H3Cl3/c3-1-2(4)5/h2H,1H2",UBOXGVDOUJQMTN-UHFFFAOYSA-N,ClCC(Cl)Cl,-1.5811040628,0.050652031399999964,2,G3,133.405,2.0289,26.213999999999995,5.0,0.0,0.0,3.0,1.0,32.0,0.0,0.0,0.0,0.0,0.0,46.013991822871176,2.5395388613593908,18.854752972273346
A-3898,"2,3,5-trimethylbenzene-1,4-diol","InChI=1S/C9H12O2/c1-5-4-8(10)6(2)7(3)9(5)11/h4,10-11H,1-3H3",AUFZRCJENRSRLY-UHFFFAOYSA-N,Cc1cc(O)c(C)c(C)c1O,-1.6383266335,0.0,1,G1,152.19299999999998,2.0230600000000005,43.98260000000002,11.0,2.0,2.0,2.0,0.0,60.0,1.0,0.0,0.0,1.0,40.46,66.11469696707881,3.4555464838177836,263.8544742134815
A-3900,[2-(4-aminobenzenesulfonyl)ethoxy]sulfonic acid,"InChI=1S/C8H11NO6S2/c9-7-1-3-8(4-2-7)16(10,11)6-5-15-17(12,13)14/h1-4H,5-6,9H2,(H,12,13,14)",IALORYHODRVWKZ-UHFFFAOYSA-N,Nc1ccc(cc1)[S](=O)(=O)CCO[S](O)(=O)=O,-1.9051186702,0.0,1,G1,281.311,-0.13809999999999972,60.407800000000016,17.0,6.0,2.0,9.0,5.0,96.0,1.0,0.0,0.0,1.0,123.75999999999999,99.07776154269499,2.728446449304219,574.9463481728366
A-3903,"tris(prop-2-en-1-yl)-1,3,5-triazinane-2,4,6-trione","InChI=1S/C12H15N3O3/c1-4-7-13-10(16)14(8-5-2)12(18)15(9-6-3)11(13)17/h4-6H,1-3,7-9H2",KOMNUTZXSVSERR-UHFFFAOYSA-N,C=CCN1C(=O)N(CC=C)C(=O)N(CC=C)C1=O,-1.8526019693,0.0,1,G1,249.26999999999995,-0.27030000000000043,69.813,18.0,6.0,0.0,6.0,6.0,96.0,1.0,0.0,0.0,1.0,66.0,103.42049775527049,3.7427964834165097,525.2206142143236
A-3904,methyl 3-aminopyrazine-2-carboxylate,"InChI=1S/C6H7N3O2/c1-11-6(10)4-5(7)9-3-2-8-4/h2-3H,1H3,(H2,7,9)",INCSQLZZXBPATR-UHFFFAOYSA-N,COC(=O)c1nccnc1N,-1.6422660516999998,0.0,1,G1,153.141,-0.15459999999999996,37.7839,11.0,5.0,1.0,5.0,1.0,58.0,1.0,0.0,0.0,1.0,78.1,63.215541336746554,3.0326621558006566,274.2848350774007
A-3905,"1,3,5-triazine-2,4,6-triamine","InChI=1S/C3H6N6/c4-1-7-2(5)9-3(6)8-1/h(H6,4,5,6,7,8,9)",JDSHMPZPIAZGSV-UHFFFAOYSA-N,Nc1nc(N)nc(N)n1,-1.5592150485,0.07673953830789855,3,G5,126.12300000000002,-1.3818000000000001,33.0642,9.0,6.0,3.0,6.0,0.0,48.0,1.0,0.0,0.0,1.0,116.72999999999999,51.11001915337465,3.165670309917317,169.06517765499825
A-3907,1-nitroguanidine,"InChI=1S/CH4N4O2/c2-1(3)4-5(6)7/h(H4,2,3,4)",IDCPFAYURAQKDZ-UHFFFAOYSA-N,NC(N)=N[N+]([O-])=O,-1.4858424644,0.08396343459818549,4,G5,104.06899999999999,-1.5484999999999998,22.80420000000001,7.0,2.0,2.0,6.0,1.0,40.0,0.0,0.0,0.0,0.0,107.54000000000002,38.93746665044988,3.679228031962392,102.25742227201613
A-3908,2-(trifluoromethyl)aniline,"InChI=1S/C7H6F3N/c8-7(9,10)5-3-1-2-4-6(5)11/h1-4H,11H2",VBLXCTYLWZJBKA-UHFFFAOYSA-N,Nc1ccccc1C(F)(F)F,-1.6756867087,0.0,1,G1,161.12599999999998,2.2876000000000003,35.856400000000015,11.0,1.0,1.0,4.0,0.0,60.0,1.0,0.0,0.0,1.0,26.02,61.63284213968499,3.1411091905317954,254.1077532761268
A-3909,1-[4-(4-hydroxyphenyl)piperazin-1-yl]ethan-1-one,"InChI=1S/C12H16N2O2/c1-10(15)13-6-8-14(9-7-13)11-2-4-12(16)5-3-11/h2-5,16H,6-9H2,1H3",AGVNLFCRZULMKK-UHFFFAOYSA-N,CC(=O)N1CCN(CC1)c2ccc(O)cc2,-1.8179144880000002,0.0,1,G1,220.27200000000005,1.0606999999999998,62.57380000000004,16.0,3.0,1.0,4.0,1.0,86.0,1.0,1.0,1.0,2.0,43.78,95.09064784499391,1.9857501866524585,367.1100796599688
A-3910,"4-(oxiran-2-ylmethoxy)-N,N-bis(oxiran-2-ylmethyl)aniline","InChI=1S/C15H19NO4/c1-3-12(17-9-15-10-20-15)4-2-11(1)16(5-13-7-18-13)6-14-8-19-14/h1-4,13-15H,5-10H2",AHIPJALLQVEEQF-UHFFFAOYSA-N,C1OC1COc2ccc(cc2)N(CC3CO3)CC4CO4,-1.9192347247,0.0,1,G1,277.32,1.0681999999999998,73.37000000000005,20.0,5.0,0.0,5.0,8.0,108.0,1.0,3.0,3.0,4.0,50.06,117.91240327670965,1.3760025438943337,437.44624709852746
A-3911,1-aminoguanidine; carbonic acid,"InChI=1S/CH6N4.CH2O3/c2-1(3)5-4;2-1(3)4/h4H2,(H4,2,3,5);(H2,2,3,4)",OTXHZHQQWQTQMW-UHFFFAOYSA-N,NN=C(N)N.OC(O)=O,-1.6153792849000002,0.11144138675323119,3,G5,136.111,-1.6441,30.650800000000007,9.0,3.0,5.0,7.0,0.0,54.0,0.0,0.0,0.0,0.0,147.95,50.74514449732442,0.0,102.38037532843026
A-3914,methyl(naphthalen-1-ylmethyl)amine,"InChI=1S/C12H13N/c1-13-9-11-7-4-6-10-5-2-3-8-12(10)11/h2-8,13H,9H2,1H3",MQRIUFVBEVFILS-UHFFFAOYSA-N,CNCc1cccc2ccccc12,-1.7150988877000002,0.0,1,G1,171.24299999999997,2.5592000000000006,56.711700000000036,13.0,1.0,1.0,1.0,2.0,66.0,2.0,0.0,0.0,2.0,12.03,78.39281406363344,2.6138711904545664,401.28971348226935
A-3915,N-(2-methoxyphenyl)-3-oxobutanamide,"InChI=1S/C11H13NO3/c1-8(13)7-11(14)12-9-5-3-4-6-10(9)15-2/h3-6H,7H2,1-2H3,(H,12,14)",KYYRTDXOHQYZPO-UHFFFAOYSA-N,COc1ccccc1NC(=O)CC(C)=O,-1.8059055211000001,0.0,1,G1,207.22899999999996,1.6127999999999998,56.92170000000002,15.0,3.0,1.0,4.0,4.0,80.0,1.0,0.0,0.0,1.0,55.4,88.24256530468247,2.711793612142758,373.8507128220061
A-3919,2-(propan-2-yloxy)propane,"InChI=1S/C6H14O/c1-5(2)7-6(3)4/h5-6H,1-4H3",ZAFNJMIOTHYJRJ-UHFFFAOYSA-N,CC(C)OC(C)C,-1.5165927583,0.27371132447615626,4,G5,102.17699999999999,1.8197999999999999,31.356999999999978,7.0,1.0,0.0,1.0,2.0,44.0,0.0,0.0,0.0,0.0,9.23,45.677506829319455,2.9532231745612925,33.44467835888275
A-3921,2-bromopropane,"InChI=1S/C3H7Br/c1-3(2)4/h3H,1-2H3",NAMYKGVDVNBCFQ-UHFFFAOYSA-N,CC(C)Br,-1.598518701,0.018480607605930482,3,G5,122.993,1.7897,24.06299999999999,4.0,0.0,0.0,1.0,0.0,26.0,0.0,0.0,0.0,0.0,0.0,35.33668286226413,2.3237900077244498,8.0
A-3922,4-methylbenzene-1-sulfonamide,"InChI=1S/C7H9NO2S/c1-6-2-4-7(5-3-6)11(8,9)10/h2-5H,1H3,(H2,8,9,10)",LMYRWZFENFIFIT-UHFFFAOYSA-N,Cc1ccc(cc1)[S](N)(=O)=O,-1.7421953353,0.0,1,G1,171.22099999999998,0.6424200000000001,42.55220000000001,11.0,2.0,1.0,4.0,1.0,60.0,1.0,0.0,0.0,1.0,60.160000000000004,65.89701182332136,3.2015159310664942,339.20825254565904
A-3924,(ethylsulfanyl)ethane,"InChI=1S/C4H10S/c1-3-5-4-2/h3-4H2,1-2H3",LJSQFQKUNVCTIA-UHFFFAOYSA-N,CCSCC,-1.4680248268,0.06401241339999997,2,G3,90.191,1.7593999999999999,28.672999999999988,5.0,1.0,0.0,1.0,2.0,32.0,0.0,0.0,0.0,0.0,0.0,37.95718739638461,2.19060968716425,11.119415478763749
A-3926,6-methylhept-5-en-2-one,"InChI=1S/C8H14O/c1-7(2)5-4-6-8(3)9/h5H,4,6H2,1-3H3",UHEPJGULSIKKTP-UHFFFAOYSA-N,CC(C)=CCCC(C)=O,-1.6210489706,0.0,1,G1,126.199,2.3218000000000005,39.346000000000004,9.0,1.0,0.0,1.0,3.0,52.0,0.0,0.0,0.0,0.0,17.07,56.765764896465306,3.3050429936972363,118.5293250129808
A-3929,1-[2-(2-butoxyethoxy)ethoxy]butane,"InChI=1S/C12H26O3/c1-3-5-7-13-9-11-15-12-10-14-8-6-4-2/h3-12H2,1-2H3",KZVBBTZJMSWGTK-UHFFFAOYSA-N,CCCCOCCOCCOCCCC,-1.8620060840000001,0.18094227434319632,3,G5,218.33699999999993,2.636400000000001,62.27300000000006,15.0,3.0,0.0,3.0,12.0,92.0,0.0,0.0,0.0,0.0,27.69,94.09424997471287,2.8079257388805243,95.04035409497882
A-3931,2-isopropenyl-5-methylcyclohexanol,"InChI=1S/C10H18O/c1-7(2)9-5-4-8(3)6-10(9)11/h8-11H,1,4-6H2,2-3H3",ZYTMANIQRDEHIO-UHFFFAOYSA-N,CC1CCC(C(O)C1)C(C)=C,-1.7111123645,0.0,1,G1,154.25299999999996,2.3596000000000004,47.32580000000002,11.0,1.0,1.0,1.0,1.0,64.0,0.0,1.0,1.0,1.0,20.23,69.12252962388155,2.5027556956841788,150.9517669080599
A-3932,2-methoxy-5-methylaniline,"InChI=1S/C8H11NO/c1-6-3-4-8(10-2)7(9)5-6/h3-5H,9H2,1-2H3",WXWCDTXEKCVRRO-UHFFFAOYSA-N,COc1ccc(C)cc1N,-1.6601758755,0.0,1,G1,137.18199999999996,1.58582,42.14340000000001,10.0,2.0,1.0,2.0,1.0,54.0,1.0,0.0,0.0,1.0,35.25,60.61472327480977,3.0699827149988397,232.69924244622516
A-3933,"2-phenyl-4,5-dihydro-1H-imidazole; benzene-1,2,4,5-tetracarboxylic acid","InChI=1S/C10H6O8.C9H10N2/c11-7(12)3-1-4(8(13)14)6(10(17)18)2-5(3)9(15)16;1-2-4-8(5-3-1)9-10-6-7-11-9/h1-2H,(H,11,12)(H,13,14)(H,15,16)(H,17,18);1-5H,6-7H2,(H,10,11)",TZBVXASHYYFGHZ-UHFFFAOYSA-N,OC(=O)c1cc(C(O)=O)c(cc1C(O)=O)C(O)=O.C2CN=C(N2)c3ccccc3,-2.1253109845,0.0,1,G1,400.34300000000013,1.5157999999999996,100.12790000000001,29.0,6.0,5.0,10.0,5.0,150.0,2.0,0.0,1.0,3.0,173.59,163.31130020476454,2.30303022758303e-07,900.5187714399323