ID,Name,InChI,InChIKey,SMILES,Solubility,SD,Ocurrences,Group,MolWt,MolLogP,MolMR,HeavyAtomCount,NumHAcceptors,NumHDonors,NumHeteroatoms,NumRotatableBonds,NumValenceElectrons,NumAromaticRings,NumSaturatedRings,NumAliphaticRings,RingCount,TPSA,LabuteASA,BalabanJ,BertzCT
A-2594,methyl 3-[3-(benzotriazol-2-yl)-5-tert-butyl-4-hydroxyphenyl]propanoate,"InChI=1S/C20H23N3O3/c1-20(2,3)14-11-13(9-10-18(24)26-4)12-17(19(14)25)23-21-15-7-5-6-8-16(15)22-23/h5-8,11-12,25H,9-10H2,1-4H3",UJRDRFZCRQNLJM-UHFFFAOYSA-N,COC(=O)CCc1cc(n2nc3ccccc3n2)c(O)c(c1)C(C)(C)C,-6.849323575900001,0.0,1,G1,353.42200000000014,3.529200000000002,99.56680000000004,26.0,6.0,1.0,6.0,4.0,136.0,3.0,0.0,0.0,3.0,77.24000000000001,151.95433486052787,2.1113776304983407,921.5800773344607
A-2595,3-octadecyl-1-[4-({4-[(octadecylcarbamoyl)amino]phenyl}methyl)phenyl]urea,"InChI=1S/C51H88N4O2/c1-3-5-7-9-11-13-15-17-19-21-23-25-27-29-31-33-43-52-50(56)54-48-39-35-46(36-40-48)45-47-37-41-49(42-38-47)55-51(57)53-44-34-32-30-28-26-24-22-20-18-16-14-12-10-8-6-4-2/h35-42H,3-34,43-45H2,1-2H3,(H2,52,54,56)(H2,53,55,57)",IHBLBMDDUQOYLA-UHFFFAOYSA-N,CCCCCCCCCCCCCCCCCCNC(=O)Nc1ccc(Cc2ccc(NC(=O)NCCCCCCCCCCCCCCCCCC)cc2)cc1,-5.9429946413,0.0,1,G1,789.2909999999991,16.043399999999966,248.82479999999896,57.0,2.0,4.0,6.0,38.0,324.0,2.0,0.0,0.0,2.0,82.26,351.24373272154816,1.4079171324661868,1105.2050002437854
A-2596,"2,5,7,8-tetramethyl-2-(4,8,12-trimethyltridecyl)-3,4-dihydro-2H-1-benzopyran-6-yl acetate","InChI=1S/C31H52O3/c1-21(2)13-10-14-22(3)15-11-16-23(4)17-12-19-31(9)20-18-28-26(7)29(33-27(8)32)24(5)25(6)30(28)34-31/h21-23H,10-20H2,1-9H3/t22-,23-,31-/m1/s1",ZAKOWWREFLAJOT-CEFNRUSXSA-N,CC(C)CCC[C@@H](C)CCC[C@@H](C)CCC[C@]1(C)CCc2c(C)c(OC(C)=O)c(C)c(C)c2O1,-5.7715452251,0.0,1,G1,472.75400000000036,9.059960000000004,144.03499999999988,34.0,3.0,0.0,3.0,13.0,194.0,1.0,0.0,1.0,2.0,35.53,209.93773738494062,1.8212054089992105,809.6304804227298
A-2597,"1,4-bis(iodomethyl)cyclohexane","InChI=1S/C8H14I2/c9-5-7-1-2-8(6-10)4-3-7/h7-8H,1-6H2",CADHELUGADNHSF-UHFFFAOYSA-N,ICC1CCC(CI)CC1,-5.7481975718,0.0,1,G1,364.00800000000004,3.6628000000000025,63.22200000000003,10.0,0.0,0.0,2.0,2.0,60.0,0.0,1.0,1.0,1.0,0.0,90.81169091716386,2.173831978453414,73.25838096618138
A-2598,"[1,3(or 1,4)-phenylenebis(1-methylethylidene)]bis[tert-butyl] peroxide","InChI=1S/C20H34O4/c1-17(2,3)21-23-19(7,8)15-11-13-16(14-12-15)20(9,10)24-22-18(4,5)6/h11-14H,1-10H3",GWQOYRSARAWVTC-UHFFFAOYSA-N,CC(C)(C)OOC(C)(C)c1ccc(cc1)C(C)(C)OOC(C)(C)C,-5.7371515873000005,0.5951658490999994,2,G2,338.4880000000001,5.650200000000006,96.34000000000007,24.0,4.0,0.0,4.0,6.0,138.0,1.0,0.0,0.0,1.0,36.92,146.85336427055367,2.8384135545500784,467.05520970457906
A-2599,Boehmite (Al(OH)O),InChI=1S/Al.H2O.O/h;1H2;/q+3;;-2/p-1,VXAUWWUXCIMFIM-UHFFFAOYSA-M,[OH-].[O--].[Al+3],-5.0252479516,0.0,1,G1,59.988,-0.6764,8.3763,3.0,1.0,0.0,3.0,0.0,16.0,0.0,0.0,0.0,0.0,58.5,29.203497608719164,-0.0,2.7548875021634682
A-2601,"1,1'-disulfanediyldioctadecane","InChI=1S/C36H74S2/c1-3-5-7-9-11-13-15-17-19-21-23-25-27-29-31-33-35-37-38-36-34-32-30-28-26-24-22-20-18-16-14-12-10-8-6-4-2/h3-36H2,1-2H3",MQQKTNDBASEZSD-UHFFFAOYSA-N,CCCCCCCCCCCCCCCCCCSSCCCCCCCCCCCCCCCCCC,-6.057758885499999,0.0,1,G1,571.1220000000002,14.890799999999963,184.0079999999994,38.0,2.0,0.0,2.0,35.0,230.0,0.0,0.0,0.0,0.0,0.0,251.15840716879103,3.007734982296973,347.53854556277946
A-2602,2-decyltetradecanoic acid,"InChI=1S/C24H48O2/c1-3-5-7-9-11-13-14-16-18-20-22-23(24(25)26)21-19-17-15-12-10-8-6-4-2/h23H,3-22H2,1-2H3,(H,25,26)",OYXVDHZABMXCMX-UHFFFAOYSA-N,CCCCCCCCCCCCC(CCCCCCCCCC)C(O)=O,-5.867639521599999,0.0,1,G1,368.64600000000013,8.529000000000007,114.8138000000001,26.0,1.0,1.0,2.0,21.0,156.0,0.0,0.0,0.0,0.0,37.3,164.08867551119135,3.462612790466041,287.9352303717598
A-2604,ZIRCONIUM,InChI=1S/Zr,QCWXUUIWCKQGHC-UHFFFAOYSA-N,[Zr],-5.35804912,2.8885261719075856,3,G4,91.224,-0.0025,0.0,1.0,0.0,0.0,1.0,0.0,4.0,0.0,0.0,0.0,0.0,0.0,26.616735350494555,0.0,0.0
A-2605,"2,2,4,6,6-pentamethyl-4-[(trimethylsilyl)oxy]-3,5-dioxa-2,4,6-trisilaheptane","InChI=1S/C10H30O3Si4/c1-14(2,3)11-17(10,12-15(4,5)6)13-16(7,8)9/h1-10H3",RGMZNZABJYWAEC-UHFFFAOYSA-N,C[Si](C)(C)O[Si](C)(O[Si](C)(C)C)O[Si](C)(C)C,-5.9360261722,0.0,1,G1,310.69100000000003,4.109600000000003,84.91100000000004,17.0,3.0,0.0,7.0,6.0,104.0,0.0,0.0,0.0,0.0,27.69,111.62828590087761,4.947050651726975,208.95331243459395
A-2606,N-(2-ethoxyphenyl)-N'-[4-(10-methylundecyl)phenyl]ethanediamide,"InChI=1S/C28H40N2O3/c1-4-33-26-17-13-12-16-25(26)30-28(32)27(31)29-24-20-18-23(19-21-24)15-11-9-7-5-6-8-10-14-22(2)3/h12-13,16-22H,4-11,14-15H2,1-3H3,(H,29,31)(H,30,32)",PIPJHDJQUXGVNR-UHFFFAOYSA-N,CCOc1ccccc1NC(=O)C(=O)Nc2ccc(CCCCCCCCCC(C)C)cc2,-6.0994494699,0.0,1,G1,452.63900000000046,6.981800000000008,136.79039999999995,33.0,3.0,2.0,5.0,14.0,180.0,2.0,0.0,0.0,2.0,67.42999999999999,198.86388495271726,1.6690637732324363,846.4759254775208
A-2607,Silicon nitride,"InChI=1S/N4Si3/c1-5-2-6(1)3(5)7(1,2)4(5)6",HQVNEWCFYHHQES-UHFFFAOYSA-N,N12[Si]34N5[Si]16N3[Si]25N46,-5.6698930776,0.0,1,G1,140.286,-2.4172000000000002,24.617999999999995,7.0,4.0,0.0,7.0,0.0,32.0,0.0,13.0,13.0,13.0,12.96,42.481028007381404,2.4243661069253055,183.23183265413536
A-2608,"2-ethylhexyl 3,5,5-trimethylhexanoate","InChI=1S/C17H34O2/c1-7-9-10-15(8-2)13-19-16(18)11-14(3)12-17(4,5)6/h14-15H,7-13H2,1-6H3",LCVHZNSIAYNAGX-UHFFFAOYSA-N,CCCCC(CC)COC(=O)CC(C)CC(C)(C)C,-5.9549769717,1.2385606273499996,2,G2,270.45699999999994,5.2084000000000055,82.11800000000007,19.0,2.0,0.0,2.0,9.0,114.0,0.0,0.0,0.0,0.0,26.3,119.8533921877259,3.901283560037207,240.1368447931823
A-2609,calcium titanium trioxide,InChI=1S/Ca.3O.Ti/q+2;3*-2;+4,WEUCVIBPSSMHJG-UHFFFAOYSA-N,[O--].[O--].[O--].[Ca++].[Ti+4],-5.6562324002999995,0.0,1,G1,135.942,-0.7397,7.8134999999999994,5.0,0.0,0.0,5.0,0.0,24.0,0.0,0.0,0.0,0.0,85.5,74.93263965489304,-0.0,6.854752972273345
A-2610,"heptyl 3-[3-(2H-1,2,3-benzotriazol-2-yl)-5-tert-butyl-4-hydroxyphenyl]propanoate nonyl 3-[3-(2H-1,2,3-benzotriazol-2-yl)-5-tert-butyl-4-hydroxyphenyl]propanoate octyl 3-[3-(2H-1,2,3-benzotriazol-2-yl)-5-tert-butyl-4-hydroxyphenyl]propanoate","InChI=1S/C26H35N3O3/c1-6-18(2)10-9-15-32-24(30)14-13-19-16-20(26(3,4)5)25(31)23(17-19)29-27-21-11-7-8-12-22(21)28-29/h7-8,11-12,16-18,31H,6,9-10,13-15H2,1-5H3",HMILXGPZMQDAKE-UHFFFAOYSA-N,CCC(C)CCCOC(=O)CCc1cc(n2nc3ccccc3n2)c(O)c(c1)C(C)(C)C,-6.1639401792,0.6109243748000002,2,G2,437.5840000000002,5.725700000000007,127.19880000000006,32.0,6.0,1.0,6.0,9.0,172.0,3.0,0.0,0.0,3.0,77.24000000000001,190.14398754690754,1.7734564664099999,1032.8546183915116
A-2613,dicalcium (phosphonatooxy)phosphonate,"InChI=1S/2Ca.H4O7P2/c;;1-8(2,3)7-9(4,5)6/h;;(H2,1,2,3)(H2,4,5,6)/q2*+2;/p-4",JUNWLZAGQLJVLR-UHFFFAOYSA-J,[Ca++].[Ca++].[O-][P]([O-])(=O)O[P]([O-])([O-])=O,-5.998459357100001,0.0,1,G1,254.09699999999998,-4.1012,27.805999999999994,11.0,7.0,0.0,11.0,2.0,56.0,0.0,0.0,0.0,0.0,135.61,121.99554649112243,-3.1999997430000204e-07,154.87959510731497
A-2614,"4-[(4-hydroxy-9,10-dioxo-9,10-dihydroanthracen-1-yl)amino]phenyl methanesulfonate","InChI=1S/C21H15NO6S/c1-29(26,27)28-13-8-6-12(7-9-13)22-16-10-11-17(23)19-18(16)20(24)14-4-2-3-5-15(14)21(19)25/h2-11,22-23H,1H3",NTZOUXAZCADJBZ-UHFFFAOYSA-N,C[S](=O)(=O)Oc1ccc(Nc2ccc(O)c3C(=O)c4ccccc4C(=O)c23)cc1,-6.214227984500001,0.0,1,G1,409.41900000000015,3.249600000000002,106.61030000000002,29.0,7.0,2.0,8.0,4.0,146.0,3.0,0.0,1.0,4.0,109.77000000000001,166.24967434452873,1.7377672312529389,1262.828863024641
A-2615,"nickel(2+) ion butan-1-amine 2-{[2-oxido-5-(2,4,4-trimethylpentan-2-yl)phenyl]sulfanyl}-4-(2,4,4-trimethylpentan-2-yl)benzen-1-olate","InChI=1S/C28H42O2S.C4H11N.Ni/c1-25(2,3)17-27(7,8)19-11-13-21(29)23(15-19)31-24-16-20(12-14-22(24)30)28(9,10)18-26(4,5)6;1-2-3-4-5;/h11-16,29-30H,17-18H2,1-10H3;2-5H2,1H3;/q;;+2/p-2",DPLLDVMBMPQDCO-UHFFFAOYSA-L,[Ni++].CCCCN.CC(C)(C)CC(C)(C)c1ccc([O-])c(Sc2cc(ccc2[O-])C(C)(C)CC(C)(C)C)c1,-6.4460405944,0.0,1,G1,572.5250000000002,8.155300000000008,154.05739999999975,37.0,4.0,1.0,5.0,8.0,212.0,2.0,0.0,0.0,2.0,72.14,241.89139161350448,1.964999529094652e-06,894.2289831046612
A-2617,4-(2-{3-[2-(4-hydroxyphenyl)propan-2-yl]phenyl}propan-2-yl)phenol,"InChI=1S/C24H26O2/c1-17(21-6-10-23(25)11-7-21)14-19-4-3-5-20(16-19)15-18(2)22-8-12-24(26)13-9-22/h3-13,16-18,25-26H,14-15H2,1-2H3",KOWHWSRFLBFYRR-UHFFFAOYSA-N,CC(Cc1cccc(CC(C)c2ccc(O)cc2)c1)c3ccc(O)cc3,-6.238635640399999,0.0,1,G1,346.4700000000001,5.790200000000007,106.89360000000003,26.0,2.0,2.0,2.0,6.0,134.0,3.0,0.0,0.0,3.0,40.46,155.3237117223967,1.672361506908547,766.0944273759578
A-2618,N-(3-methylphenyl)-4-{4-[(3-methylphenyl)(phenyl)amino]phenyl}-N-phenylaniline,"InChI=1S/C38H32N2/c1-29-11-9-17-37(27-29)39(33-13-5-3-6-14-33)35-23-19-31(20-24-35)32-21-25-36(26-22-32)40(34-15-7-4-8-16-34)38-18-10-12-30(2)28-38/h3-28H,1-2H3",OGGKVJMNFFSDEV-UHFFFAOYSA-N,Cc1cccc(c1)N(c2ccccc2)c3ccc(cc3)c4ccc(cc4)N(c5ccccc5)c6cccc(C)c6,-6.4121983796,0.0,1,G1,516.6880000000003,10.910039999999988,170.71799999999953,40.0,2.0,0.0,2.0,7.0,194.0,6.0,0.0,0.0,6.0,6.48,236.96642571901705,1.32084868349153,1559.02954949118
A-2619,N-methyl-N-phenyl{[methyl(phenyl)carbamothioyl]disulfanyl}carbothioamide,"InChI=1S/C16H16N2S4/c1-17(13-9-5-3-6-10-13)15(19)21-22-16(20)18(2)14-11-7-4-8-12-14/h3-12H,1-2H3",RDQQCSOIXMZZQR-UHFFFAOYSA-N,CN(C(=S)SSC(=S)N(C)c1ccccc1)c2ccccc2,-6.2607699922,2.1505149978499993,2,G2,364.58600000000007,5.2104000000000035,110.06800000000001,22.0,4.0,0.0,6.0,2.0,114.0,2.0,0.0,0.0,2.0,6.48,149.83167575504405,1.8946866831024092,573.6087701721092
A-2620,"N-{2-[(2-cyano-4,6-dinitrophenyl)diazenyl]-5-(diethylamino)phenyl}acetamide","InChI=1S/C19H19N7O5/c1-4-24(5-2)14-6-7-16(17(9-14)21-12(3)27)22-23-19-13(11-20)8-15(25(28)29)10-18(19)26(30)31/h6-10H,4-5H2,1-3H3,(H,21,27)",NHBNDXGKNAEBAI-UHFFFAOYSA-N,CCN(CC)c1ccc(N=Nc2c(cc(cc2[N+]([O-])=O)[N+]([O-])=O)C#N)c(NC(C)=O)c1,-6.327772594400001,0.0,1,G1,425.40500000000014,4.594680000000004,112.94850000000002,31.0,9.0,1.0,12.0,8.0,160.0,2.0,0.0,0.0,2.0,167.13,176.65961905114983,2.6073291407288486,1103.555988696724
A-2621,"Phenol, 4-methyl-, reaction products with dicyclopentadiene and isobutylene","InChI=1S/C10H12.C7H8O.C4H8/c1-2-9-7-4-5-8(6-7)10(9)3-1;1-6-2-4-7(8)5-3-6;1-4(2)3/h1-2,4-5,7-10H,3,6H2;2-5,8H,1H3;1H2,2-3H3",UQQYHXZNSYZMEN-UHFFFAOYSA-N,CC(C)=C.Cc1ccc(O)cc1.C2C=CC3C4CC(C=C4)C23,-6.1709273189,0.6505149978500002,2,G2,296.454,5.667620000000005,94.80580000000005,22.0,1.0,1.0,1.0,0.0,118.0,1.0,1.0,3.0,4.0,20.23,134.6251283375601,1.3325396675189724e-07,524.7748016824258
A-2622,"Sorbitan monolaurate, ethoxylated","InChI=1S/C26H50O10/c1-2-3-4-5-6-7-8-9-10-11-24(30)34-19-18-31-20-22(32-15-12-27)26-25(35-17-14-29)23(21-36-26)33-16-13-28/h22-23,25-29H,2-21H2,1H3",HMFKFHLTUCJZJO-UHFFFAOYSA-N,CCCCCCCCCCCC(=O)OCCOCC(OCCO)C1OCC(OCCO)C1OCCO,-6.417202563200001,0.0,1,G1,522.6760000000004,1.9984000000000006,133.83940000000004,36.0,10.0,3.0,10.0,25.0,214.0,0.0,1.0,1.0,1.0,133.14000000000001,216.08246746788865,2.267923922124221,507.11656887146364
A-2623,16-methylheptadecan-1-ol,"InChI=1S/C18H38O/c1-18(2)16-14-12-10-8-6-4-3-5-7-9-11-13-15-17-19/h18-19H,3-17H2,1-2H3",WNWHHMBRJJOGFJ-UHFFFAOYSA-N,CC(C)CCCCCCCCCCCCCCCO,-6.256077615900001,0.0,1,G1,270.50099999999986,6.096100000000007,86.56180000000008,19.0,1.0,1.0,1.0,15.0,116.0,0.0,0.0,0.0,0.0,20.23,121.73750072476794,2.9140733561090637,153.76927278138976
A-2624,"2,3-bis(acetyloxy)propyl dodecanoate","InChI=1S/C19H34O6/c1-4-5-6-7-8-9-10-11-12-13-19(22)24-15-18(25-17(3)21)14-23-16(2)20/h18H,4-15H2,1-3H3",NBMAHNZMRSQCPG-UHFFFAOYSA-N,CCCCCCCCCCCC(=O)OCC(COC(C)=O)OC(C)=O,-6.378367614400001,0.0,1,G1,358.47500000000014,3.9453000000000022,94.99000000000007,25.0,6.0,0.0,6.0,15.0,146.0,0.0,0.0,0.0,0.0,78.9,151.13341107562047,3.7044575103015074,380.1106070884596
A-2625,"2-Butenedioic acid (E)-, di-C12-18-alkyl esters","InChI=1S/C34H64O4/c1-3-5-7-9-11-13-15-17-19-21-23-25-27-31-37-33(35)29-30-34(36)38-32-28-26-24-22-20-18-16-14-12-10-8-6-4-2/h29-30H,3-28,31-32H2,1-2H3/b30-29+",CUKXIDNDOQQWQN-QVIHXGFCSA-N,CCCCCCCCCCCCCCCOC(=O)/C=C/C(=O)OCCCCCCCCCCCCCCC,-6.5537875846,0.0,1,G1,536.8820000000005,10.811399999999992,162.44799999999967,38.0,4.0,0.0,4.0,30.0,224.0,0.0,0.0,0.0,0.0,52.60000000000001,236.64287242983477,3.3543056887398905,482.57886096604267
A-2626,"2-Butenedioic acid (E)-, di-C8-18-alkyl esters","InChI=1S/C20H36O4/c1-3-5-7-9-11-13-17-23-19(21)15-16-20(22)24-18-14-12-10-8-6-4-2/h15-16H,3-14,17-18H2,1-2H3/b16-15+",TVWTZAGVNBPXHU-FOCLMDBBSA-N,CCCCCCCCOC(=O)\C=C\C(=O)OCCCCCCCC,-6.356030959,0.0,1,G1,340.5040000000002,5.350000000000006,97.81000000000007,24.0,4.0,0.0,4.0,16.0,140.0,0.0,0.0,0.0,0.0,52.60000000000001,147.5336828282822,3.4788856778776065,304.5305499972184
A-2627,bis(4-isocyanatophenyl) [(4-isocyanatophenyl)sulfanyl]phosphonate,"InChI=1S/C21H12N3O6PS/c25-13-22-16-1-7-19(8-2-16)28-31(32,29-20-9-3-17(4-10-20)23-14-26)30-21-11-5-18(6-12-21)24-15-27/h1-12H",KGLSETWPYVUTQX-UHFFFAOYSA-N,O=C=Nc1ccc(O[P](=S)(Oc2ccc(cc2)N=C=O)Oc3ccc(cc3)N=C=O)cc1,-6.4917192558000005,0.0,1,G1,465.38300000000015,5.349800000000004,118.83949999999999,32.0,10.0,0.0,11.0,9.0,158.0,3.0,0.0,0.0,3.0,115.97999999999999,186.5315154242601,1.8861579317760233,1116.142647202464
A-2628,bis(8-methylnonyl) but-2-enedioate,"InChI=1S/C24H44O4/c1-21(2)15-11-7-5-9-13-19-27-23(25)17-18-24(26)28-20-14-10-6-8-12-16-22(3)4/h17-18,21-22H,5-16,19-20H2,1-4H3/b18-17+",WVUCNLQROBXNOX-ISLYRVAYSA-N,CC(C)CCCCCCCOC(=O)\C=C\C(=O)OCCCCCCCC(C)C,-6.4222745911,0.0,1,G1,396.6120000000003,6.622200000000008,116.13800000000009,28.0,4.0,0.0,4.0,18.0,164.0,0.0,0.0,0.0,0.0,52.60000000000001,172.99345128586864,3.4778423554826126,374.8282108715606
A-2629,didodecyl but-2-enedioate,"InChI=1S/C28H52O4/c1-3-5-7-9-11-13-15-17-19-21-25-31-27(29)23-24-28(30)32-26-22-20-18-16-14-12-10-8-6-4-2/h23-24H,3-22,25-26H2,1-2H3/b24-23+",HEJZJSIRBLOWPD-WCWDXBQESA-N,CCCCCCCCCCCCOC(=O)\C=C\C(=O)OCCCCCCCCCCCC,-6.4797384219000005,0.0,1,G1,452.7200000000005,8.470800000000008,134.746,32.0,4.0,0.0,4.0,24.0,188.0,0.0,0.0,0.0,0.0,52.60000000000001,198.4532197434551,3.394917032268413,404.7133265610699
A-2630,propan-2-yl (9Z)-octadec-9-enoate,"InChI=1S/C21H40O2/c1-4-5-6-7-8-9-10-11-12-13-14-15-16-17-18-19-21(22)23-20(2)3/h11-12,20H,4-10,13-19H2,1-3H3/b12-11-",PZQSQRCNMZGWFT-QXMHVHEDSA-N,CCCCCCCC\C=C/CCCCCCCC(=O)OC(C)C,-6.3351890163,0.0,1,G1,324.549,6.975500000000008,100.68000000000008,23.0,2.0,0.0,2.0,16.0,136.0,0.0,0.0,0.0,0.0,26.3,144.62355761312816,3.175259500107785,281.5661568283565
A-2631,"2,2-bis(hydroxymethyl)propane-1,3-diol; decanoic acid; heptanoic acid; octanoic acid","InChI=1S/C10H20O2.C8H16O2.C7H14O2.C5H12O4/c1-2-3-4-5-6-7-8-9-10(11)12;1-2-3-4-5-6-7-8(9)10;1-2-3-4-5-6-7(8)9;6-1-5(2-7,3-8)4-9/h2-9H2,1H3,(H,11,12);2-7H2,1H3,(H,9,10);2-6H2,1H3,(H,8,9);6-9H,1-4H2",DZVDMBMUZJQKGH-UHFFFAOYSA-N,CCCCCCCCCC(O)=O.CCCCCCCC(O)=O.CCCCCCC(O)=O.OCC(CO)(CO)CO,-6.6194034302,0.0,1,G1,582.8160000000005,5.626600000000007,158.4285999999999,40.0,7.0,7.0,10.0,23.0,242.0,0.0,0.0,0.0,0.0,192.81999999999996,242.38426837142228,-2.176175092786143e-07,519.0727020317363
A-2632,"2,3,4-Tris(6-diazo-5,6-dihydro-5-oxo-1-naphthalenesulfonyloxy)benzophenone","InChI=1S/C43H22N6O13S3/c44-47-31-19-15-24-27(39(31)51)9-4-12-35(24)63(54,55)60-34-22-18-30(38(50)23-7-2-1-3-8-23)42(61-64(56,57)36-13-5-10-28-25(36)16-20-32(48-45)40(28)52)43(34)62-65(58,59)37-14-6-11-29-26(37)17-21-33(49-46)41(29)53/h1-22H",IYBMFZHGMIRLPI-UHFFFAOYSA-N,[N-]=[N+]=C1C=Cc2c(cccc2[S](=O)(=O)Oc3ccc(C(=O)c4ccccc4)c(O[S](=O)(=O)c5cccc6C(=O)C(C=Cc56)=[N+]=[N-])c3O[S](=O)(=O)c7cccc8C(=O)C(C=Cc78)=[N+]=[N-])C1=O,-6.820895006900001,0.0,1,G1,926.8789999999999,4.861600000000005,225.05659999999972,65.0,13.0,0.0,22.0,11.0,320.0,5.0,0.0,3.0,8.0,307.59,366.5544557164356,1.3745920679856805,3655.2201959382014
A-2633,triethoxy(octyl)silane,"InChI=1S/C14H32O3Si/c1-5-9-10-11-12-13-14-18(15-6-2,16-7-3)17-8-4/h5-14H2,1-4H3",MSRJTTSHWYDFIU-UHFFFAOYSA-N,CCCCCCCC[Si](OCC)(OCC)OCC,-6.327740788400001,0.0,1,G1,276.493,4.395300000000004,78.81500000000007,18.0,3.0,0.0,4.0,13.0,110.0,0.0,0.0,0.0,0.0,27.69,114.57510703560797,3.9686872686555104,159.40248911719408
A-2635,12-hydroxy-N-[2-(12-hydroxyoctadecanamido)ethyl]octadecanamide,"InChI=1S/C38H76N2O4/c1-3-5-7-21-27-35(41)29-23-17-13-9-11-15-19-25-31-37(43)39-33-34-40-38(44)32-26-20-16-12-10-14-18-24-30-36(42)28-22-8-6-4-2/h35-36,41-42H,3-34H2,1-2H3,(H,39,43)(H,40,44)",YLWQQYRYYZPZLJ-UHFFFAOYSA-N,CCCCCCC(O)CCCCCCCCCCC(=O)NCCNC(=O)CCCCCCCCCCC(O)CCCCCC,-6.7352071916,0.0,1,G1,625.0360000000002,9.683399999999999,187.89099999999942,44.0,4.0,4.0,6.0,35.0,262.0,0.0,0.0,0.0,0.0,98.66000000000001,273.25334533219973,3.3528501037845597,563.6394763958584
A-2636,"2-[4-(4-oxo-4H-3,1-benzoxazin-2-yl)phenyl]-4H-3,1-benzoxazin-4-one",InChI=1S/C22H12N2O4/c25-21-15-5-1-3-7-17(15)23-19(27-21)13-9-11-14(12-10-13)20-24-18-8-4-2-6-16(18)22(26)28-20/h1-12H,BBITXNWQALLODC-UHFFFAOYSA-N,O=C1OC(=Nc2ccccc12)c3ccc(cc3)C4=Nc5ccccc5C(=O)O4,-6.5170402935,0.0,1,G1,368.3480000000001,4.023400000000002,104.98800000000001,28.0,6.0,0.0,6.0,2.0,134.0,5.0,0.0,0.0,5.0,86.2,157.2808944050941,1.5814985549894447,1337.6784188282081
A-2637,(13Z)-docos-13-enamide,"InChI=1S/C22H43NO/c1-2-3-4-5-6-7-8-9-10-11-12-13-14-15-16-17-18-19-20-21-22(23)24/h9-10H,2-8,11-21H2,1H3,(H2,23,24)/b10-9-",UAUDZVJPLUQNMU-KTKRTIGZSA-N,CCCCCCCC\C=C/CCCCCCCCCCCC(N)=O,-6.5283921465,1.0659718191000005,2,G2,337.5920000000001,7.069600000000007,107.11440000000007,24.0,1.0,1.0,2.0,19.0,142.0,0.0,0.0,0.0,0.0,43.09,151.2148451950306,3.0620091981522943,285.6945021246863
A-2638,"1,1',1''-methanetriyltris(4-isocyanatobenzene)","InChI=1S/C22H13N3O3/c26-13-23-19-7-1-16(2-8-19)22(17-3-9-20(10-4-17)24-14-27)18-5-11-21(12-6-18)25-15-28/h1-12,22H",LTIKIBFTASQKMM-UHFFFAOYSA-N,O=C=Nc1ccc(cc1)C(c2ccc(cc2)N=C=O)c3ccc(cc3)N=C=O,-6.5650965952,0.0,1,G1,367.3640000000001,4.7687000000000035,103.61550000000001,28.0,6.0,0.0,6.0,6.0,134.0,3.0,0.0,0.0,3.0,88.28999999999999,160.17589374692312,2.07486288638975,954.9855996786196
A-2639,"1,2-Benzenedicarboxylic acid, di-C8-10-branched alkyl esters, C9-rich","InChI=1S/C26H42O4/c1-21(2)15-9-5-7-13-19-29-25(27)23-17-11-12-18-24(23)26(28)30-20-14-8-6-10-16-22(3)4/h11-12,17-18,21-22H,5-10,13-16,19-20H2,1-4H3",HBGGXOJOCNVPFY-UHFFFAOYSA-N,CC(C)CCCCCCOC(=O)c1ccccc1C(=O)OCCCCCCC(C)C,-6.6218178985,1.2440651110861127,4,G4,418.6180000000004,7.2132000000000085,122.8530000000001,30.0,4.0,0.0,4.0,16.0,170.0,1.0,0.0,0.0,1.0,52.60000000000001,183.28038006653048,2.3220024108637642,553.8060883770333
A-2641,"1,6-bis(2-ethylhexyl) hexanedioate","InChI=1S/C22H42O4/c1-5-9-13-19(7-3)17-25-21(23)15-11-12-16-22(24)26-18-20(8-4)14-10-6-2/h19-20H,5-18H2,1-4H3",SAOKZLXYCUGLFA-UHFFFAOYSA-N,CCCCC(CC)COC(=O)CCCCC(=O)OCC(CC)CCCC,-6.5688749453,1.1293608427842516,4,G4,370.5740000000002,6.066000000000007,106.99800000000009,26.0,4.0,0.0,4.0,17.0,154.0,0.0,0.0,0.0,0.0,52.60000000000001,160.95317008925963,3.731744715310046,320.0514102666709
A-2642,"1,6-bis(2-methylnonyl) hexanedioate","InChI=1S/C26H50O4/c1-23(2)17-11-7-5-9-15-21-29-25(27)19-13-14-20-26(28)30-22-16-10-6-8-12-18-24(3)4/h23-24H,5-22H2,1-4H3",YKGYQYOQRGPFTO-UHFFFAOYSA-N,CC(C)CCCCCCCOC(=O)CCCCC(=O)OCCCCCCCC(C)C,-6.6301043221,1.6782978389500003,2,G2,426.6820000000003,7.62640000000001,125.4660000000001,30.0,4.0,0.0,4.0,21.0,178.0,0.0,0.0,0.0,0.0,52.60000000000001,186.41293854684614,3.3307197618795277,365.8377762182996
A-2643,"1,6-bis(7-methyloctyl) hexanedioate","InChI=1S/C24H46O4/c1-21(2)15-9-5-7-13-19-27-23(25)17-11-12-18-24(26)28-20-14-8-6-10-16-22(3)4/h21-22H,5-20H2,1-4H3",AYWLCKHHUFBVGJ-UHFFFAOYSA-N,CC(C)CCCCCCOC(=O)CCCCC(=O)OCCCCCCC(C)C,-6.6005678007,0.5,2,G3,398.62800000000027,6.8462000000000085,116.2320000000001,28.0,4.0,0.0,4.0,19.0,166.0,0.0,0.0,0.0,0.0,52.60000000000001,173.68305431805288,3.343835773533131,340.80143790415167