ID,Name,InChI,InChIKey,SMILES,Solubility,SD,Ocurrences,Group,MolWt,MolLogP,MolMR,HeavyAtomCount,NumHAcceptors,NumHDonors,NumHeteroatoms,NumRotatableBonds,NumValenceElectrons,NumAromaticRings,NumSaturatedRings,NumAliphaticRings,RingCount,TPSA,LabuteASA,BalabanJ,BertzCT
A-2423,2-[2-(dimethylamino)ethoxy]ethan-1-ol,"InChI=1S/C6H15NO2/c1-7(2)3-5-9-6-4-8/h8H,3-6H2,1-2H3",YSAANLSYLSUVHB-UHFFFAOYSA-N,CN(C)CCOCCO,-0.1244748796,0.0,1,G1,133.191,-0.4431000000000002,36.45879999999999,9.0,3.0,1.0,3.0,5.0,56.0,0.0,0.0,0.0,0.0,32.7,56.23157425171884,2.7466909068574954,57.01955000865388
A-2424,"4-nitrobenzene-1,3-diamine","InChI=1S/C6H7N3O2/c7-4-1-2-6(9(10)11)5(8)3-4/h1-3H,7-8H2",DPIZKMGPXNXSGL-UHFFFAOYSA-N,Nc1ccc(c(N)c1)[N+]([O-])=O,-2.1850914787,0.69766319655,2,G2,153.14100000000002,0.7592000000000001,41.9212,11.0,4.0,2.0,5.0,1.0,58.0,1.0,0.0,0.0,1.0,95.18,62.76416023602219,3.1960696621259204,297.878911724299
A-2425,dibutyltin dilaurate,"InChI=1S/2C12H24O2.2C4H9.Sn/c2*1-2-3-4-5-6-7-8-9-10-11-12(13)14;2*1-3-4-2;/h2*2-11H2,1H3,(H,13,14);2*1,3-4H2,2H3;/q;;;;+2/p-2",UKLDJPRMSDWDSL-UHFFFAOYSA-L,CCCCCCCCCCCC([O-])=O.CCCCCCCCCCCC([O-])=O.CCCC[Sn++]CCCC,-5.645086142699999,0.0,1,G1,631.5710000000003,8.441800000000008,158.8859999999997,37.0,4.0,0.0,5.0,26.0,220.0,0.0,0.0,0.0,0.0,80.25999999999999,242.32063266013762,-4.814906722222467e-07,391.01114759952657
A-2428,tetraethylplumbane,"InChI=1S/4C2H5.Pb/c4*1-2;/h4*1H2,2H3;",MRMOZBOQVYRSEM-UHFFFAOYSA-N,CC[Pb](CC)(CC)CC,-5.4128944571,0.38056229539806274,3,G5,323.44800000000015,3.514800000000003,47.678000000000026,9.0,0.0,0.0,1.0,4.0,56.0,0.0,0.0,0.0,0.0,0.0,64.69309592260046,3.824684203207495,47.45811190640113
A-2430,trans-1-(1-oxohexadecyl)-4-[(1-oxohexadecyl)oxy]-L-proline,"InChI=1S/C37H69NO5/c1-3-5-7-9-11-13-15-17-19-21-23-25-27-29-35(39)38-32-33(31-34(38)37(41)42)43-36(40)30-28-26-24-22-20-18-16-14-12-10-8-6-4-2/h33-34H,3-32H2,1-2H3,(H,41,42)/t33-,34+/m1/s1",QZLXCFQVOCEKSX-NOCHOARKSA-N,CCCCCCCCCCCCCCCC(=O)O[C@@H]1C[C@H](N(C1)C(=O)CCCCCCCCCCCCCCC)C(O)=O,-5.7838757207,0.0,1,G1,607.9610000000004,10.546299999999997,178.25779999999952,43.0,4.0,1.0,6.0,30.0,252.0,0.0,1.0,1.0,1.0,83.91,265.0235149446159,2.075899483592455,696.4957648842803
A-2433,cerium(3+) ion trifluoride,InChI=1S/Ce.3FH/h;3*1H/q+3;;;/p-3,QCCDYNYSHILRDG-UHFFFAOYSA-K,[F-].[F-].[F-].[Ce+3],-5.8633448938,0.4225202739292101,4,G5,197.11,-8.988,0.0,4.0,0.0,0.0,4.0,0.0,25.0,0.0,0.0,0.0,0.0,0.0,55.43722415147092,-0.0,3.2451124978365313
A-2434,triphenylphosphane,InChI=1S/C18H15P/c1-4-10-16(11-5-1)19(17-12-6-2-7-13-17)18-14-8-3-9-15-18/h1-15H,RIOQSEWOXXDEQQ-UHFFFAOYSA-N,c1ccc(cc1)P(c2ccccc2)c3ccccc3,-6.201301100399999,0.13162071740000014,2,G3,262.29200000000003,3.4448000000000016,85.14800000000004,19.0,0.0,0.0,1.0,3.0,92.0,3.0,0.0,0.0,3.0,0.0,115.0452769124983,2.1210106325672244,523.7138976114098
A-2436,"3,7-dimethylocta-1,6-diene","InChI=1S/C10H18/c1-5-10(4)8-6-7-9(2)3/h5,7,10H,1,6,8H2,2-4H3",FUDNBFMOXDUIIE-UHFFFAOYSA-N,CC(CCC=C(C)C)C=C,-5.9645864462,0.0,1,G1,138.25399999999996,3.5549000000000026,48.02600000000003,10.0,0.0,0.0,0.0,4.0,58.0,0.0,0.0,0.0,0.0,0.0,64.6445239930305,3.362923864895267,116.0
A-2437,"2,2-bis(hydroxymethyl)propane-1,3-diol; decanoic acid; heptanoic acid; octanoic acid; pentanoic acid","InChI=1S/C10H20O2.C8H16O2.C7H14O2.C5H12O4.C5H10O2/c1-2-3-4-5-6-7-8-9-10(11)12;1-2-3-4-5-6-7-8(9)10;1-2-3-4-5-6-7(8)9;6-1-5(2-7,3-8)4-9;1-2-3-4-5(6)7/h2-9H2,1H3,(H,11,12);2-7H2,1H3,(H,9,10);2-6H2,1H3,(H,8,9);6-9H,1-4H2;2-4H2,1H3,(H,6,7)",ZIRMEZKEFPNOEV-UHFFFAOYSA-N,CCCCCCCCCC(O)=O.CCCCCCCC(O)=O.CCCCCCC(O)=O.CCCCC(O)=O.OCC(CO)(CO)CO,-7.5346282403,0.0,1,G1,684.9490000000005,6.887800000000008,185.5893999999996,47.0,8.0,8.0,12.0,26.0,284.0,0.0,0.0,0.0,0.0,230.11999999999995,284.17056594917443,-1.5800142127083072e-07,649.435196693246
A-2438,2-ethylhexyl 2-({2-[(2-ethylhexyl)oxy]-2-oxoethyl}sulfanyl)acetate,"InChI=1S/C20H38O4S/c1-5-9-11-17(7-3)13-23-19(21)15-25-16-20(22)24-14-18(8-4)12-10-6-2/h17-18H,5-16H2,1-4H3",KYWZILPIDASSGE-UHFFFAOYSA-N,CCCCC(CC)COC(=O)CSCC(=O)OCC(CC)CCCC,-6.654998170599999,0.0,1,G1,374.5870000000002,5.238800000000006,105.85500000000008,25.0,5.0,0.0,5.0,16.0,148.0,0.0,0.0,0.0,0.0,52.60000000000001,158.34639588583164,3.79020524391641,314.5878547242788
A-2442,"2-(4-methylpent-3-enyl)anthracene-9,10-dione","InChI=1S/C20H18O2/c1-13(2)6-5-7-14-10-11-17-18(12-14)20(22)16-9-4-3-8-15(16)19(17)21/h3-4,6,8-12H,5,7H2,1-2H3",NQVBCGTZRWHVSY-UHFFFAOYSA-N,CC(C)=CCCc1ccc2C(=O)c3ccccc3C(=O)c2c1,-7.985818524400001,0.0,1,G1,290.362,4.360800000000004,87.50100000000003,22.0,2.0,0.0,2.0,3.0,110.0,2.0,0.0,1.0,3.0,34.14,130.0356442551079,1.972150813939487,793.1045852748604
A-2443,"O1-nonyl O2-octyl benzene-1,2-dicarboxylate","InChI=1S/C25H40O4/c1-3-5-7-9-11-13-17-21-29-25(27)23-19-15-14-18-22(23)24(26)28-20-16-12-10-8-6-4-2/h14-15,18-19H,3-13,16-17,20-21H2,1-2H3",ZKHMKHBSASMXEZ-UHFFFAOYSA-N,CCCCCCCCCOC(=O)c1ccccc1C(=O)OCCCCCCCC,-4.7809414151,0.0,1,G1,404.5910000000004,7.111300000000008,118.37600000000009,29.0,4.0,0.0,4.0,17.0,164.0,1.0,0.0,0.0,1.0,52.60000000000001,176.91543795213389,2.3166728863167485,567.6967115582063
A-2444,lithium docosanoate,"InChI=1S/C22H44O2.Li/c1-2-3-4-5-6-7-8-9-10-11-12-13-14-15-16-17-18-19-20-21-22(23)24;/h2-21H2,1H3,(H,23,24);/q;+1/p-1",SDIIFPDBZMCCLQ-UHFFFAOYSA-M,[Li+].CCCCCCCCCCCCCCCCCCCCCC([O-])=O,-6.8769767405,0.0,1,G1,346.52500000000015,3.5622000000000007,103.02100000000009,25.0,2.0,0.0,3.0,20.0,144.0,0.0,0.0,0.0,0.0,40.129999999999995,169.65635680833054,0.0,256.4117744776844
A-2445,lithium myristate,"InChI=1S/C14H28O2.Li/c1-2-3-4-5-6-7-8-9-10-11-12-13-14(15)16;/h2-13H2,1H3,(H,15,16);/q;+1/p-1",KJSPVJJOPONRTK-UHFFFAOYSA-M,[Li+].CCCCCCCCCCCCCC([O-])=O,-6.7070311388,0.0,1,G1,234.30899999999994,0.4413999999999998,66.08500000000005,17.0,2.0,0.0,3.0,12.0,96.0,0.0,0.0,0.0,0.0,40.129999999999995,118.7368198931577,0.0,160.30119944437257
A-2446,lithium octadec-9-enoate,"InChI=1S/C18H34O2.Li/c1-2-3-4-5-6-7-8-9-10-11-12-13-14-15-16-17-18(19)20;/h9-10H,2-8,11-17H2,1H3,(H,19,20);/q;+1/p-1/b10-9-;",AVOVSJYQRZMDQJ-KVVVOXFISA-M,[Li+].CCCCCCCC\C=C/CCCCCCCC([O-])=O,-6.7972389302,0.0,1,G1,288.401,1.7777999999999985,84.45900000000006,21.0,2.0,0.0,3.0,15.0,118.0,0.0,0.0,0.0,0.0,40.129999999999995,143.50698531855988,0.0,239.37282534112853
A-2447,lithium(1+) ion 12-hydroxyoctadecanoate,"InChI=1S/C18H36O3.Li/c1-2-3-4-11-14-17(19)15-12-9-7-5-6-8-10-13-16-18(20)21;/h17,19H,2-16H2,1H3,(H,20,21);/q;+1/p-1",FPLIHVCWSXLMPX-UHFFFAOYSA-M,[Li+].CCCCCCC(O)CCCCCCCCCCC([O-])=O,-6.8235536072,0.0,1,G1,306.416,0.9725999999999997,85.94280000000008,22.0,3.0,1.0,4.0,16.0,126.0,0.0,0.0,0.0,0.0,60.36,148.99082210294014,0.0,234.372158116511
A-2448,methanidylidyneoxidanium triphenylphosphane (2Z)-4-oxopent-2-en-2-olate rhodium,"InChI=1S/C18H15P.C5H7O2.CO.Rh/c1-4-10-16(11-5-1)19(17-12-6-2-7-13-17)18-14-8-3-9-15-18;1-4(6)3-5(2)7;1-2;/h1-15H;3H,1-2H3;;/q;-1;;",ZETXURAVPSJSPU-UHFFFAOYSA-N,[Rh].CC(=O)[CH-]C(C)=O.[C-]#[O+].c1ccc(cc1)P(c2ccccc2)c3ccccc3,-7.3120335908000005,0.0,1,G1,492.3170000000001,3.773480000000003,114.73950000000002,29.0,2.0,0.0,5.0,5.0,151.0,3.0,0.0,0.0,3.0,54.04,186.33341146416356,6.747339748060178e-07,759.7381850768998
A-2450,3-[3-(9-methyldecoxy)propylamino]propanenitrile,"InChI=1S/C17H34N2O/c1-17(2)11-7-5-3-4-6-8-15-20-16-10-14-19-13-9-12-18/h17,19H,3-11,13-16H2,1-2H3",JWIXWVDMADJVJP-UHFFFAOYSA-N,CC(C)CCCCCCCCOCCCNCCC#N,-3.6184664922000005,0.0,1,G1,282.472,4.2830800000000036,85.69270000000007,20.0,3.0,1.0,3.0,15.0,118.0,0.0,0.0,0.0,0.0,45.05,125.63431195275896,2.943494389636279,223.52011862678003
A-2451,[(1S)-3-(4-methylpent-3-enyl)-1-cyclohex-3-enyl]methyl acetate,"InChI=1S/C15H24O2/c1-12(2)6-4-7-14-8-5-9-15(10-14)11-17-13(3)16/h6,8,15H,4-5,7,9-11H2,1-3H3/t15-/m0/s1",IIUKCYITROTKFB-HNNXBMFYSA-N,CC(=O)OC[C@H]1CCC=C(CCC=C(C)C)C1,-4.9756247854,0.0,1,G1,236.35499999999996,4.022400000000004,70.72200000000004,17.0,2.0,0.0,2.0,5.0,96.0,0.0,0.0,1.0,1.0,26.3,104.73847074103497,2.2994338073206246,308.883509367128
A-2453,"2-acetyl-4-({4-[(3-acetyl-4-amino-9,10-dioxo-9,10-dihydroanthracen-1-yl)amino]-6-phenyl-1,3,5-triazin-2-yl}amino)-1-amino-9,10-dihydroanthracene-9,10-dione","InChI=1S/C41H27N7O6/c1-18(49)25-16-27(29-31(33(25)42)37(53)23-14-8-6-12-21(23)35(29)51)44-40-46-39(20-10-4-3-5-11-20)47-41(48-40)45-28-17-26(19(2)50)34(43)32-30(28)36(52)22-13-7-9-15-24(22)38(32)54/h3-17H,42-43H2,1-2H3,(H2,44,45,46,47,48)",QHUKBYLVVVMGRT-UHFFFAOYSA-N,CC(=O)c1cc(Nc2nc(Nc3cc(C(C)=O)c(N)c4C(=O)c5ccccc5C(=O)c34)nc(n2)c6ccccc6)c7C(=O)c8ccccc8C(=O)c7c1N,-4.9504317948,0.0,1,G1,713.71,6.146200000000004,200.1601999999997,54.0,13.0,4.0,13.0,7.0,262.0,6.0,0.0,2.0,8.0,217.18999999999997,306.0323310622751,1.3105320336939061,2560.7450085084542
A-2455,"Glycerides, C16-22","InChI=1S/C19H38O4/c1-2-3-4-5-6-7-8-9-10-11-12-13-14-15-19(22)23-17-18(21)16-20/h18,20-21H,2-17H2,1H3",QHZLMUACJMDIAE-UHFFFAOYSA-N,CCCCCCCCCCCCCCCC(=O)OCC(O)CO,-4.7267916006,0.0,1,G1,330.509,4.364100000000005,94.36360000000006,23.0,4.0,2.0,4.0,17.0,138.0,0.0,0.0,0.0,0.0,66.76,142.17174392091118,3.1389657434371654,255.75416757722002
A-2456,"A mixture of: bis(2,2,6,6-tetramethyl-1-octyloxypiperidin-4-yl)-1,10-decanedioate; 1,8-bis[(2,2,6,6-tetramethyl-4-((2,2,6,6-tetramethyl-1-octyloxypiperidin-4-yl)-decan-1,10-dioyl)piperidin-1-yl)oxy]octane","InChI=1S/C28H52N2O4.C8H18.C4H10O2/c1-25(2)17-21(18-26(3,4)29-25)33-23(31)15-13-11-9-10-12-14-16-24(32)34-22-19-27(5,6)30-28(7,8)20-22;1-3-5-7-8-6-4-2;1-4(2,3)6-5/h21-22,29-30H,9-20H2,1-8H3;3-8H2,1-2H3;5H,1-3H3",FNRJJSFGQVCXEK-UHFFFAOYSA-N,CCCCCCCC.CC(C)(C)OO.CC1(C)CC(CC(C)(C)N1)OC(=O)CCCCCCCCC(=O)OC2CC(C)(C)NC(C)(C)C2,-5.0575951101,0.0,1,G1,685.0880000000002,10.453299999999997,200.26819999999927,48.0,8.0,3.0,8.0,16.0,286.0,0.0,2.0,2.0,2.0,106.11999999999999,296.45892681305577,1.3132021482135702e-06,781.4456172001321
A-2457,2-ethylhexyl 2-{[({2-[(2-ethylhexyl)oxy]-2-oxoethyl}sulfanyl)dimethylstannyl]sulfanyl}acetate,"InChI=1S/2C10H20O2S.2CH3.Sn/c2*1-3-5-6-9(4-2)7-12-10(11)8-13;;;/h2*9,13H,3-8H2,1-2H3;2*1H3;/q;;;;+2/p-2",YAHBZWSDRFSFOO-UHFFFAOYSA-L,CCCCC(CC)COC(=O)CS[Sn](C)(C)SCC(=O)OCC(CC)CCCC,-4.0456632383999995,0.0,1,G1,555.4350000000001,6.673800000000008,130.92800000000005,29.0,6.0,0.0,7.0,18.0,172.0,0.0,0.0,0.0,0.0,52.60000000000001,188.72329013163906,4.089247226095215,408.52820083966805
A-2458,"2-{2-[(8E)-heptadec-8-en-1-yl]-4,5-dihydro-1H-imidazol-1-yl}ethan-1-ol","InChI=1S/C22H42N2O/c1-2-3-4-5-6-7-8-9-10-11-12-13-14-15-16-17-22-23-18-19-24(22)20-21-25/h9-10,25H,2-8,11-21H2,1H3/b10-9-",WGTDLPBPQKAPMN-KTKRTIGZSA-N,CCCCCCCC\C=C/CCCCCCCC1=NCCN1CCO,-3.8458307588,0.1505149978,2,G3,350.59100000000007,5.730300000000007,110.41280000000009,25.0,3.0,1.0,3.0,17.0,146.0,0.0,0.0,1.0,1.0,35.83,156.15699115270436,1.818913362245287,351.9363823393707
A-2460,"3,5-di-tert-butyl-2-hydroxybenzoic acid hydrate zinc hydrochloride","InChI=1S/C15H22O3.ClH.H2O.Zn/c1-14(2,3)9-7-10(13(17)18)12(16)11(8-9)15(4,5)6;;;/h7-8,16H,1-6H3,(H,17,18);1H;1H2;",DDGGEFYAEPNQFB-UHFFFAOYSA-N,O.Cl.[Zn].CC(C)(C)c1cc(C(O)=O)c(O)c(c1)C(C)(C)C,-4.8694711025999995,0.0,1,G1,370.2040000000002,3.280000000000002,83.32790000000006,21.0,2.0,2.0,6.0,1.0,118.0,1.0,0.0,0.0,1.0,89.03000000000002,144.98304647703094,-1.0799998338000268e-06,487.6725889838145
A-2461,zinc bis[bis(tetrapropylenephenyl)] bis(hydrogen dithiophosphate),"InChI=1S/2C36H59O2PS2.Zn/c2*1-9-13-27(5)35(15-11-3)29(7)25-31-17-21-33(22-18-31)37-39(40,41)38-34-23-19-32(20-24-34)26-30(8)36(16-12-4)28(6)14-10-2;/h2*17-24,27-30,35-36H,9-16,25-26H2,1-8H3,(H,40,41);/q;;+2/p-2",JVQCNSRVEPWJNL-UHFFFAOYSA-L,[Zn++].CCCC(C)C(CCC)C(C)Cc1ccc(O[P]([S-])(=S)Oc2ccc(CC(C)C(CCC)C(C)CCC)cc2)cc1.CCCC(C)C(CCC)C(C)Cc3ccc(O[P]([S-])(=S)Oc4ccc(CC(C)C(CCC)C(C)CCC)cc4)cc3,-5.4154147676,0.0,1,G1,1301.321999999999,23.953500000000034,372.93200000000144,83.0,8.0,0.0,11.0,40.0,464.0,4.0,0.0,0.0,4.0,36.92,544.8570656060597,5.599999582404794e-07,2061.5711937825986
A-2462,chromium tris((2-ethylhexanoate),"InChI=1S/3C8H16O2.Cr/c3*1-3-5-6-7(4-2)8(9)10;/h3*7H,3-6H2,1-2H3,(H,9,10);/q;;;+3/p-3",WBKDDMYJLXVBNI-UHFFFAOYSA-K,[Cr+3].CCCCC(CC)C([O-])=O.CCCCC(CC)C([O-])=O.CCCCC(CC)C([O-])=O,-3.0199412712,0.0,1,G1,481.6140000000004,2.855600000000001,114.93900000000009,31.0,6.0,0.0,7.0,15.0,183.0,0.0,0.0,0.0,0.0,120.38999999999999,200.88536251471604,-1.7357142658316328e-07,366.47904614348874
A-2463,"[(2R,3R)-5,7-dihydroxy-2-(3,4,5-trihydroxyphenyl)chroman-3-yl] 3,4,5-trihydroxybenzoate","InChI=1S/C22H18O11/c23-10-5-12(24)11-7-18(33-22(31)9-3-15(27)20(30)16(28)4-9)21(32-17(11)6-10)8-1-13(25)19(29)14(26)2-8/h1-6,18,21,23-30H,7H2/t18-,21-/m1/s1",WMBWREPUVVBILR-WIYYLYMNSA-N,Oc1cc(O)c2C[C@@H](OC(=O)c3cc(O)c(O)c(O)c3)[C@H](Oc2c1)c4cc(O)c(O)c(O)c4,-1.0591609316,0.0,1,G1,458.37500000000017,2.2332,108.92089999999997,33.0,11.0,8.0,11.0,3.0,172.0,3.0,0.0,1.0,4.0,197.36999999999998,184.74201141230787,1.7472605732203803,1221.4274042533714
A-2464,"Alcohols, C16-18 and C18-unsatd., ethoxylated","InChI=1S/C20H40O/c1-3-5-6-7-8-9-10-11-12-13-14-15-16-17-18-19-20-21-4-2/h5-6H,3-4,7-20H2,1-2H3/b6-5+",WBCCOWHDSAVXAO-AATRIKPKSA-N,CCOCCCCCCCCCCCCCC\C=C\CC,-4.7999839607,0.34547486824999973,2,G3,296.539,7.0604000000000084,95.94500000000008,21.0,1.0,0.0,1.0,17.0,126.0,0.0,0.0,0.0,0.0,9.23,134.09709339868778,2.946021280396973,198.01509520064775
A-2465,2-(4-chloro-2-fluorophenyl)acetonitrile,"InChI=1S/C8H5ClFN/c9-7-2-1-6(3-4-11)8(10)5-7/h1-2,5H,3H2",RTQOANCZEAIDEZ-UHFFFAOYSA-N,Fc1cc(Cl)ccc1CC#N,-2.5939062498,0.0,1,G1,169.58599999999998,2.54518,40.72700000000001,11.0,1.0,0.0,3.0,1.0,56.0,1.0,0.0,0.0,1.0,23.79,69.0226686595668,3.0147352900100564,303.45063475813174
A-2466,"2,2-dimethyl-4-phenylpentanenitrile","InChI=1S/C13H17N/c1-11(9-13(2,3)10-14)12-7-5-4-6-8-12/h4-8,11H,9H2,1-3H3",GWCCFAFCQHECBM-UHFFFAOYSA-N,CC(CC(C)(C)C#N)c1ccccc1,-3.2350788163,0.0,1,G1,187.28600000000003,3.729980000000003,58.868000000000045,14.0,1.0,0.0,1.0,3.0,74.0,1.0,0.0,0.0,1.0,23.79,86.37857760174195,2.696134203688046,318.8388414746719
A-2467,4-tert-butylcyclohexyl acetate,"InChI=1S/C12H22O2/c1-9(13)14-11-7-5-10(6-8-11)12(2,3)4/h10-11H,5-8H2,1-4H3",MBZRJSQZCBXRGK-UHFFFAOYSA-N,CC(=O)OC1CCC(CC1)C(C)(C)C,-3.6996406686000003,0.5237334164499996,2,G2,198.30599999999998,3.1544000000000016,56.96700000000005,14.0,2.0,0.0,2.0,1.0,82.0,0.0,1.0,1.0,1.0,26.3,87.02285046221365,2.3492269359801927,194.85749387444827
A-2470,17-hydroxyandrostan-3-one,"InChI=1S/C19H30O2/c1-18-9-7-13(20)11-12(18)3-4-14-15-5-6-17(21)19(15,2)10-8-16(14)18/h12,14-17,21H,3-11H2,1-2H3/t12-,14-,15-,16-,17-,18-,19-/m0/s1",NVKAWKQGWWIWPM-ABEVXSGRSA-N,C[C@]12CC[C@H]3[C@@H](CC[C@H]4CC(=O)CC[C@]34C)[C@@H]1CC[C@@H]2O,-4.9189988506999995,2.58804942535,2,G2,290.44699999999995,3.9591000000000034,82.74080000000005,21.0,2.0,1.0,2.0,0.0,118.0,0.0,4.0,4.0,4.0,37.3,128.24064032509136,1.6370645181431462,458.48270663634156
A-2471,1-cyclohexyl-3-[4-({4-[(cyclohexylcarbamoyl)amino]phenyl}methyl)phenyl]urea,"InChI=1S/C27H36N4O2/c32-26(28-22-7-3-1-4-8-22)30-24-15-11-20(12-16-24)19-21-13-17-25(18-14-21)31-27(33)29-23-9-5-2-6-10-23/h11-18,22-23H,1-10,19H2,(H2,28,30,32)(H2,29,31,33)",SGXPOLBQSKXTKY-UHFFFAOYSA-N,O=C(NC1CCCCC1)Nc2ccc(Cc3ccc(NC(=O)NC4CCCCC4)cc3)cc2,-5.142667396,0.0,1,G1,448.6110000000003,6.185800000000006,133.74479999999997,33.0,2.0,4.0,6.0,6.0,176.0,2.0,2.0,2.0,4.0,82.26,196.47345966897137,1.2190611856811273,823.2235270115495
A-2473,"2,4-dioxo-1,3-diazetidine-1,3-bis(methyl-m-phenylene) diisocyanate","InChI=1S/C18H12N4O4/c1-11-3-5-13(7-15(11)19-9-23)21-17(25)22(18(21)26)14-6-4-12(2)16(8-14)20-10-24/h3-8H,1-2H3",LOCPTSFJZDIICR-UHFFFAOYSA-N,Cc1ccc(cc1N=C=O)N2C(=O)N(c3ccc(C)c(c3)N=C=O)C2=O,-5.0368259397,0.0,1,G1,348.3180000000001,3.8046400000000027,93.67100000000003,26.0,6.0,0.0,8.0,4.0,128.0,2.0,1.0,1.0,3.0,99.47999999999999,147.62871957071346,1.9353895215535992,937.9817681837052
A-2474,"(2R)-2-[(2R,3R,4S)-3,4-dihydroxyoxolan-2-yl]-2-hydroxyethyl dodecanoate","InChI=1S/C18H34O6/c1-2-3-4-5-6-7-8-9-10-11-16(21)23-13-15(20)18-17(22)14(19)12-24-18/h14-15,17-20,22H,2-13H2,1H3/t14-,15?,17+,18-/m1/s1",LWZFANDGMFTDAV-IOVMHBDKSA-N,CCCCCCCCCCCC(=O)OCC(O)[C@H]1OC[C@@H](O)[C@@H]1O,-5.0625368604,0.0,1,G1,346.46400000000006,1.931999999999999,90.56340000000006,24.0,6.0,3.0,6.0,13.0,142.0,0.0,1.0,1.0,1.0,96.22000000000001,144.70874963468822,1.9637742268036789,335.47067498701915
A-2476,methyl 2-({4-[2-(2-cyano-4-nitrophenyl)diazen-1-yl]-3-acetamidophenyl}(2-methoxy-2-oxoethyl)amino)acetate,"InChI=1S/C21H20N6O7/c1-13(28)23-19-9-15(26(11-20(29)33-2)12-21(30)34-3)4-7-18(19)25-24-17-6-5-16(27(31)32)8-14(17)10-22/h4-9H,11-12H2,1-3H3,(H,23,28)",DSYAJHRMVXOBRK-UHFFFAOYSA-N,COC(=O)CN(CC(=O)OC)c1ccc(N=Nc2ccc(cc2C#N)[N+]([O-])=O)c(NC(C)=O)c1,-5.1935197379,0.0,1,G1,468.4260000000002,2.992680000000001,118.97810000000005,34.0,11.0,1.0,13.0,9.0,176.0,2.0,0.0,0.0,2.0,176.58999999999997,193.28666221654458,2.4647196216682454,1170.6199751514496
A-2477,iodocopper,InChI=1S/Cu.HI/h;1H/q+1;/p-1,LSXDOTMGLUJQCM-UHFFFAOYSA-M,[Cu+].[I-],-5.9787509813,0.0,1,G1,190.45,-2.9985,0.0,2.0,0.0,0.0,2.0,0.0,18.0,0.0,0.0,0.0,0.0,0.0,41.107890448758326,0.0,2.0
A-2478,"4-[(E)-2-{3-[(E)-2-(2,4-diaminophenyl)diazen-1-yl]phenyl}diazen-1-yl]benzene-1,3-diamine","InChI=1S/C18H18N8/c19-11-4-6-17(15(21)8-11)25-23-13-2-1-3-14(10-13)24-26-18-7-5-12(20)9-16(18)22/h1-10H,19-22H2",BDFZFGDTHFGWRQ-UHFFFAOYSA-N,Nc1ccc(N=Nc2cccc(c2)N=Nc3ccc(N)cc3N)c(N)c1,-4.197152695,0.0,1,G1,346.39800000000014,4.846200000000002,105.32760000000002,26.0,8.0,4.0,8.0,4.0,130.0,3.0,0.0,0.0,3.0,153.51999999999998,149.79871000865407,1.7932049601498792,917.4813082264379
A-2479,"2,3-dimethylpentane; 2-methylpentane; 3-methylhexane; 3-methylpentane","InChI=1S/2C7H16.2C6H14/c1-5-7(4)6(2)3;1-4-6-7(3)5-2;1-4-5-6(2)3;1-4-6(3)5-2/h6-7H,5H2,1-4H3;7H,4-6H2,1-3H3;2*6H,4-5H2,1-3H3",KFBRQWHEGZEJKU-UHFFFAOYSA-N,CCCC(C)C.CCCC(C)CC.CCC(C)CC.CCC(C)C(C)C,-3.2704062977999997,0.43123009999072237,5,G5,372.76600000000013,10.406099999999995,128.14800000000014,26.0,0.0,0.0,0.0,9.0,164.0,0.0,0.0,0.0,0.0,0.0,170.88029734833245,-1.2447368348946264e-07,200.0838499786226
A-2481,pent-2-ene,"InChI=1S/C5H10/c1-3-5-4-2/h3,5H,4H2,1-2H3/b5-3+",QMMOXUPEWRXHJS-HWKANZROSA-N,CC\C=C\C,-2.5449048057,0.43123009997922984,5,G5,70.135,1.9725,25.10499999999999,5.0,0.0,0.0,0.0,1.0,30.0,0.0,0.0,0.0,0.0,0.0,33.50941645323172,2.622415807990217,27.019550008653873
A-2482,hydrogen sulfide,InChI=1S/H2S/h1H2,RWSOTUBLDIXVET-UHFFFAOYSA-N,S,-5.5325378146,3.1687187902984104,5,G4,34.083,0.11280000000000001,10.381,1.0,0.0,0.0,1.0,0.0,8.0,0.0,0.0,0.0,0.0,0.0,14.56133221487115,0.0,0.0
A-2483,2-[(2-cyanoethyl)[4-[(6-nitrobenzothiazol-2-yl)azo]phenyl]amino]ethyl acetate,"InChI=1S/C20H18N6O4S/c1-14(27)30-12-11-25(10-2-9-21)16-5-3-15(4-6-16)23-24-20-22-18-8-7-17(26(28)29)13-19(18)31-20/h3-8,13H,2,10-12H2,1H3",ZNUBBVSUTSNSIM-UHFFFAOYSA-N,CC(=O)OCCN(CCC#N)c1ccc(cc1)N=Nc2sc3cc(ccc3n2)[N+]([O-])=O,-4.3409088982999995,0.7310955508500001,2,G2,438.4690000000002,4.9030800000000045,115.96840000000003,31.0,10.0,0.0,11.0,9.0,158.0,3.0,0.0,0.0,3.0,134.08,181.11200215764208,1.6990778550605283,1152.6816072876818
A-2484,2-[(E)-2-{4-[(E)-2-(2-cyanophenyl)ethenyl]phenyl}ethenyl]benzonitrile,"InChI=1S/C24H16N2/c25-17-23-7-3-1-5-21(23)15-13-19-9-11-20(12-10-19)14-16-22-6-2-4-8-24(22)18-26/h1-16H/b15-13+,16-14+",RBABXJPJIHMBBP-WXUKJITCSA-N,N#Cc1ccccc1/C=C/c2ccc(cc2)/C=C/c3ccccc3C#N,-4.2206388586,0.0,1,G1,332.40600000000006,5.7707600000000046,106.61200000000002,26.0,2.0,0.0,2.0,4.0,122.0,3.0,0.0,0.0,3.0,47.58,153.1411975165736,1.7484090824752785,956.059021168029
A-2485,"3,3'-[[4-[(2-chloro-4-nitrophenyl)azo]phenyl]imino]bis[propiononitrile]","InChI=1S/C18H15ClN6O2/c19-17-13-16(25(26)27)7-8-18(17)23-22-14-3-5-15(6-4-14)24(11-1-9-20)12-2-10-21/h3-8,13H,1-2,11-12H2",ZXXVVTBKBDDTSE-UHFFFAOYSA-N,[O-][N+](=O)c1ccc(N=Nc2ccc(cc2)N(CCC#N)CCC#N)c(Cl)c1,-4.281954413,0.0,1,G1,382.81100000000015,5.297360000000004,101.39740000000003,27.0,7.0,0.0,9.0,8.0,136.0,2.0,0.0,0.0,2.0,118.67999999999998,160.626162838952,2.1213082213796692,896.9295836484418