ID,Name,InChI,InChIKey,SMILES,Solubility,SD,Ocurrences,Group,MolWt,MolLogP,MolMR,HeavyAtomCount,NumHAcceptors,NumHDonors,NumHeteroatoms,NumRotatableBonds,NumValenceElectrons,NumAromaticRings,NumSaturatedRings,NumAliphaticRings,RingCount,TPSA,LabuteASA,BalabanJ,BertzCT
A-150,"disodium 4,4'-[(2,4-dihydroxy-1,3-phenylene)didiazene-2,1-diyl]dinaphthalene-1-sulfonate","InChI=1S/C26H18N4O8S2.2Na/c31-22-12-9-21(29-27-19-10-13-23(39(33,34)35)17-7-3-1-5-15(17)19)26(32)25(22)30-28-20-11-14-24(40(36,37)38)18-8-4-2-6-16(18)20;;/h1-14,27-28H,(H,33,34,35)(H,36,37,38);;/q;2*+1/p-2/b29-21+,30-25+;;",UTIACSXEVKXHPT-XALLQCHJSA-L,[Na+].[Na+].[O-][S](=O)(=O)c1ccc(N\N=C\2C=CC(=O)C(=N/Nc3ccc(c4ccccc34)[S]([O-])(=O)=O)\C2=O)c5ccccc15,-2.6038411441,0.0,1,G1,622.5480000000001,-4.739199999999995,143.54779999999985,42.0,12.0,2.0,16.0,6.0,202.0,5.0,0.0,0.0,5.0,197.31999999999996,282.1466774400944,2.4199974202278325e-06,2288.2512584705014
A-153,1-[(1-propoxypropan-2-yl)oxy]propan-2-ol,"InChI=1S/C9H20O3/c1-4-5-11-7-9(3)12-6-8(2)10/h8-10H,4-7H2,1-3H3",WEZPLQKRXDBPEP-UHFFFAOYSA-N,CCCOCC(C)OCC(C)O,-0.0700526508,0.0,1,G1,176.25599999999997,1.1988999999999999,48.204800000000034,12.0,3.0,1.0,3.0,7.0,74.0,0.0,0.0,0.0,0.0,38.69,74.68011215421217,3.1531775862478155,93.77443751081735
A-156,"5-isocyanato-1-(isocyanatomethyl)-1,3,3-trimethylcyclohexane","InChI=1S/C12H18N2O2/c1-11(2)4-10(14-9-16)5-12(3,6-11)7-13-8-15/h10H,4-7H2,1-3H3",NIMLQBUJDJZYEJ-UHFFFAOYSA-N,CC1(C)CC(CC(C)(CN=C=O)C1)N=C=O,-4.1708247593,0.0,1,G1,222.28799999999995,2.2430000000000003,60.63700000000004,16.0,4.0,0.0,4.0,3.0,88.0,0.0,1.0,1.0,1.0,58.86,95.8614723044708,2.854455780958164,352.0302611774938
A-158,"octadec-9-enoic acid - N-(2-aminoethyl)ethane-1,2-diamine (1:1)","InChI=1S/C18H34O2.C4H13N3/c1-2-3-4-5-6-7-8-9-10-11-12-13-14-15-16-17-18(19)20;5-1-3-7-4-2-6/h9-10H,2-8,11-17H2,1H3,(H,19,20);7H,1-6H2/b10-9-;",PYBPYUAKCDQFCS-KVVVOXFISA-N,CCCCCCCC\C=C/CCCCCCCC(O)=O.NCCNCCN,-4.4100874366000005,0.3986702441415569,4,G5,385.6370000000001,4.601900000000001,118.06630000000008,27.0,4.0,4.0,5.0,19.0,162.0,0.0,0.0,0.0,0.0,101.36999999999999,167.9046629813766,0.0,305.9330151827408
A-162,1-[2-[[4-[(2-chloro-4-nitrophenyl)azo]phenyl]ethylamino]ethyl]pyridinium acetate,"InChI=1S/C21H21ClN5O2.C2H4O2/c1-2-26(15-14-25-12-4-3-5-13-25)18-8-6-17(7-9-18)23-24-21-11-10-19(27(28)29)16-20(21)22;1-2(3)4/h3-13,16H,2,14-15H2,1H3;1H3,(H,3,4)/q+1;/p-1",WQIDMVKHMHGZPN-UHFFFAOYSA-M,CCN(CC[n+]1ccccc1)c2ccc(cc2)N=Nc3ccc(cc3Cl)[N+]([O-])=O.CC([O-])=O,-1.5218900849,0.0,1,G1,469.92900000000026,4.233800000000003,123.92940000000007,33.0,7.0,0.0,10.0,8.0,172.0,3.0,0.0,0.0,3.0,115.10999999999999,196.28930415538946,8.900571395975501e-07,1087.7657079061817
A-167,diphenyl carbonate,InChI=1S/C13H10O3/c14-13(15-11-7-3-1-4-8-11)16-12-9-5-2-6-10-12/h1-10H,ROORDVPLFPIABK-UHFFFAOYSA-N,O=C(Oc1ccccc1)Oc2ccccc2,-4.2169166627,0.0,1,G1,214.21999999999997,3.264400000000002,59.53600000000003,16.0,3.0,0.0,3.0,2.0,80.0,2.0,0.0,0.0,2.0,35.53,93.24205199901515,1.9521941477943936,407.6186271235691
A-168,vinyl 2-ethylhexanoate,"InChI=1S/C10H18O2/c1-4-7-8-9(5-2)10(11)12-6-3/h6,9H,3-5,7-8H2,1-2H3",IGBZOHMCHDADGY-UHFFFAOYSA-N,CCCCC(CC)C(=O)OC=C,-4.1519109764,0.0,1,G1,170.25199999999998,2.8895000000000017,49.59500000000003,12.0,2.0,0.0,2.0,6.0,70.0,0.0,0.0,0.0,0.0,26.3,74.6091943547654,3.7801924243186464,140.7740056622918
A-169,2-methyl-N-[(2-methylprop-2-enamido)methyl]prop-2-enamide,"InChI=1S/C9H14N2O2/c1-6(2)8(12)10-5-11-9(13)7(3)4/h1,3,5H2,2,4H3,(H,10,12)(H,11,13)",TURITJIWSQEMDB-UHFFFAOYSA-N,CC(=C)C(=O)NCNC(=O)C(C)=C,-1.1892367555,0.0,1,G1,182.22299999999998,0.32850000000000007,50.780400000000014,13.0,2.0,2.0,4.0,4.0,72.0,0.0,0.0,0.0,0.0,58.2,77.70235044593753,3.6893729618756304,230.34031643968072
A-170,"(1Z,5Z)-cycloocta-1,5-diene","InChI=1S/C8H12/c1-2-4-6-8-7-5-3-1/h1-2,7-8H,3-6H2/b2-1-,8-7-",VYXHVRARDIDEHS-QGTKBVGQSA-N,C\1C\C=C/CC\C=C1,-2.9659771732999998,0.0,1,G1,108.184,2.6728000000000014,36.748,8.0,0.0,0.0,0.0,0.0,44.0,0.0,0.0,1.0,1.0,0.0,50.90880861070806,2.285714285714285,72.60593781761291
A-171,(3-isocyanatopropyl)trimethoxysilane,"InChI=1S/C7H15NO4Si/c1-10-13(11-2,12-3)6-4-5-8-7-9/h4-6H2,1-3H3",FMGBDYLOANULLW-UHFFFAOYSA-N,CO[Si](CCCN=C=O)(OC)OC,-3.2569810012000002,0.0,1,G1,205.286,0.5903999999999998,49.19350000000003,13.0,5.0,0.0,6.0,7.0,76.0,0.0,0.0,0.0,0.0,57.120000000000005,79.07735682073559,3.8734286416774055,169.06669317043506
A-172,(3-chloropropyl)triethoxysilane,"InChI=1S/C9H21ClO3Si/c1-4-11-14(12-5-2,13-6-3)9-7-8-10/h4-9H2,1-3H3",KSCAZPYHLGGNPZ-UHFFFAOYSA-N,CCO[Si](CCCCl)(OCC)OCC,-3.3285834497000004,0.0,1,G1,240.80299999999994,2.6637000000000013,60.776000000000046,14.0,3.0,0.0,5.0,9.0,86.0,0.0,0.0,0.0,0.0,27.69,93.0536626905066,4.210670443406352,118.20592425326386
A-176,"1,2-dibutyl benzene-1,2-dicarboxylate","InChI=1S/C16H22O4/c1-3-5-11-19-15(17)13-9-7-8-10-14(13)16(18)20-12-6-4-2/h7-10H,3-6,11-12H2,1-2H3",DOIRQSBPFJWKBE-UHFFFAOYSA-N,CCCCOC(=O)c1ccccc1C(=O)OCCCC,-4.3876832538,0.05729726359058978,5,G5,278.348,3.600400000000003,76.82300000000005,20.0,4.0,0.0,4.0,8.0,110.0,1.0,0.0,0.0,1.0,52.60000000000001,119.63095892256436,2.7123913375014235,398.85794216890986
A-177,"sodium 3-{[9,10-dioxo-4-({2,4,6-trimethyl-3-[(sodiooxy)sulfonyl]phenyl}amino)-9,10-dihydroanthracen-1-yl]amino}-2,4,6-trimethylbenzene-1-sulfonate","InChI=1S/C32H30N2O8S2.2Na/c1-15-13-17(3)31(43(37,38)39)19(5)27(15)33-23-11-12-24(26-25(23)29(35)21-9-7-8-10-22(21)30(26)36)34-28-16(2)14-18(4)32(20(28)6)44(40,41)42;;/h7-14,33-34H,1-6H3,(H,37,38,39)(H,40,41,42);;/q;2*+1/p-2",UHXQPQCJDDSMCB-UHFFFAOYSA-L,[Na+].[Na+].Cc1cc(C)c(c(C)c1Nc2ccc(Nc3c(C)cc(C)c(c3C)[S]([O-])(=O)=O)c4C(=O)c5ccccc5C(=O)c24)[S]([O-])(=O)=O,-1.7922611704,0.0,1,G1,678.6960000000004,-0.3840799999999942,163.5467999999997,46.0,10.0,2.0,14.0,6.0,228.0,4.0,0.0,1.0,5.0,172.59999999999997,312.02323133214145,2.879996750903783e-06,2027.6636029946453
A-178,"4-benzoylbenzene-1,2,3-triol","InChI=1S/C13H10O4/c14-10-7-6-9(12(16)13(10)17)11(15)8-4-2-1-3-5-8/h1-7,14,16-17H",HTQNYBBTZSBWKL-UHFFFAOYSA-N,Oc1ccc(c(O)c1O)C(=O)c2ccccc2,-3.3451078238,0.0,1,G1,230.219,2.0343999999999993,61.31090000000003,17.0,4.0,3.0,4.0,2.0,86.0,2.0,0.0,0.0,2.0,77.75999999999999,97.39766279658942,2.492154135657027,561.1321875173596
A-182,"3-[(2E)-dodec-2-en-1-yl]oxolane-2,5-dione; 3-[(2Z)-dodec-2-en-1-yl]oxolane-2,5-dione","InChI=1S/C16H26O3/c1-2-3-4-5-6-7-8-9-10-11-12-14-13-15(17)19-16(14)18/h10-11,14H,2-9,12-13H2,1H3/b11-10+",UYCICMIUKYEYEU-ZHACJKMWSA-N,CCCCCCCCC\C=C\CC1CC(=O)OC1=O,-4.4255032449,0.0,1,G1,266.381,4.163100000000004,75.57300000000005,19.0,3.0,0.0,3.0,10.0,108.0,0.0,1.0,1.0,1.0,43.370000000000005,115.95453798765962,1.932483463585129,307.11590649725093
A-183,"dihydro-3-(tetrapropenyl)furan-2,5-dione","InChI=1S/C16H26O3/c1-10(2)6-11(3)7-12(4)8-13(5)14-9-15(17)19-16(14)18/h8,10-12,14H,6-7,9H2,1-5H3/b13-8+",WBRBLKRDTHYRRV-MDWZMJQESA-N,CC(C)CC(C)CC(C)\C=C(/C)C1CC(=O)OC1=O,-4.4255032449,0.15051499779999977,2,G3,266.381,3.730800000000003,75.36300000000004,19.0,3.0,0.0,3.0,6.0,108.0,0.0,1.0,1.0,1.0,43.370000000000005,115.95453798765962,2.5334057052447885,368.1903353571112
A-184,{2-hydroxy-3-[(9Z)-octadec-9-enoyloxy]propoxy}boronic acid 2-hydroxy-3-{[hydroxy({2-hydroxy-3-[(9Z)-octadec-9-enoyloxy]propoxy})boranyl]oxy}propyl (9Z)-octadec-9-enoate 3-{[bis({2-hydroxy-3-[(9Z)-octadec-9-enoyloxy]propoxy})boranyl]oxy}-2-hydroxypropyl (9Z)-octadec-9-enoate,"InChI=1S/C63H117BO12.C42H79BO9.C21H41BO6/c1-4-7-10-13-16-19-22-25-28-31-34-37-40-43-46-49-61(68)71-52-58(65)55-74-64(75-56-59(66)53-72-62(69)50-47-44-41-38-35-32-29-26-23-20-17-14-11-8-5-2)76-57-60(67)54-73-63(70)51-48-45-42-39-36-33-30-27-24-21-18-15-12-9-6-3;1-3-5-7-9-11-13-15-17-19-21-23-25-27-29-31-33-41(46)49-35-39(44)37-51-43(48)52-38-40(45)36-50-42(47)34-32-30-28-26-24-22-20-18-16-14-12-10-8-6-4-2;1-2-3-4-5-6-7-8-9-10-11-12-13-14-15-16-17-21(24)27-18-20(23)19-28-22(25)26/h25-30,58-60,65-67H,4-24,31-57H2,1-3H3;17-20,39-40,44-45,48H,3-16,21-38H2,1-2H3;9-10,20,23,25-26H,2-8,11-19H2,1H3/b28-25-,29-26-,30-27-;19-17-,20-18-;10-9-",VBCPUMZLCRUHTJ-VVUJETCRSA-N,CCCCCCCC\C=C/CCCCCCCC(=O)OCC(O)COB(O)O.CCCCCCCC\C=C/CCCCCCCC(=O)OCC(O)COB(O)OCC(O)COC(=O)CCCCCCC\C=C/CCCCCCCC.CCCCCCCC\C=C/CCCCCCCC(=O)OCC(O)COB(OCC(O)COC(=O)CCCCCCC\C=C/CCCCCCCC)OCC(O)COC(=O)CCCCCCC\C=C/CCCCCCCC,-5.345705158,0.0,1,G1,2216.691000000001,29.64000000000008,638.1372000000025,156.0,27.0,9.0,30.0,120.0,912.0,0.0,0.0,0.0,0.0,395.25000000000006,952.4933598980933,-2.5073975421472055e-06,2927.0601180034787
A-188,4-(decanoyloxy)benzoic acid,"InChI=1S/C17H24O4/c1-2-3-4-5-6-7-8-9-16(18)21-15-12-10-14(11-13-15)17(19)20/h10-13H,2-9H2,1H3,(H,19,20)",QTMHHQFADWIZCP-UHFFFAOYSA-N,CCCCCCCCCC(=O)Oc1ccc(cc1)C(O)=O,-5.424547549700001,0.0,1,G1,292.37500000000006,4.430900000000003,81.64630000000005,21.0,3.0,1.0,4.0,10.0,116.0,1.0,0.0,0.0,1.0,63.6,125.67658955965013,2.1686226890039664,436.6082594494218
A-189,"4,4,13,13-tetraethoxy-3,14-dioxa-8,9-dithia-4,13-disilahexadecane","InChI=1S/C18H42O6S2Si2/c1-7-19-27(20-8-2,21-9-3)17-13-15-25-26-16-14-18-28(22-10-4,23-11-5)24-12-6/h7-18H2,1-6H3",FBBATURSCRIBHN-UHFFFAOYSA-N,CCO[Si](CCCSSCCC[Si](OCC)(OCC)OCC)(OCC)OCC,-5.676541808600001,0.0,1,G1,474.8340000000004,5.244800000000006,125.02800000000008,28.0,8.0,0.0,10.0,21.0,170.0,0.0,0.0,0.0,0.0,55.38000000000001,182.77266615089707,4.137940540514776,289.9984127700166
A-191,3-methylbutyl (2E)-3-(4-methoxyphenyl)prop-2-enoate,"InChI=1S/C15H20O3/c1-12(2)10-11-18-15(16)9-6-13-4-7-14(17-3)8-5-13/h4-9,12H,10-11H2,1-3H3/b9-6+",UBNYRXMKIIGMKK-RMKNXTFCSA-N,COc1ccc(\C=C\C(=O)OCCC(C)C)cc1,-5.4919252104,0.0,1,G1,248.32199999999995,3.2977000000000025,72.44200000000004,18.0,3.0,0.0,3.0,6.0,98.0,1.0,0.0,0.0,1.0,35.53,108.4148916759397,2.3983407616804873,390.7046703843559
A-192,2-(hexadecanoylamino)acetic acid,"InChI=1S/C18H35NO3/c1-2-3-4-5-6-7-8-9-10-11-12-13-14-15-17(20)19-16-18(21)22/h2-16H2,1H3,(H,19,20)(H,21,22)",KVTFEOAKFFQCCX-UHFFFAOYSA-N,CCCCCCCCCCCCCCCC(=O)NCC(O)=O,-5.593122621900001,0.044587195094306885,3,G5,313.482,4.6685000000000025,90.95750000000007,22.0,2.0,2.0,4.0,16.0,130.0,0.0,0.0,0.0,0.0,66.4,135.61040710846353,3.107593513656218,279.5058337171213
A-193,"(1E,5E,9E)-cyclododeca-1,5,9-triene","InChI=1S/C12H18/c1-2-4-6-8-10-12-11-9-7-5-3-1/h1-2,7-10H,3-6,11-12H2/b2-1-,9-7-,10-8+",ZOLLIQAKMYWTBR-UDIJVJLMSA-N,C\1C\C=C/CC\C=C/CC/C=C1,-5.3651562541,0.19897000429999956,2,G3,162.276,4.009200000000003,55.122000000000035,12.0,0.0,0.0,0.0,0.0,66.0,0.0,0.0,1.0,1.0,0.0,75.67897403611023,2.3041105984884602,121.19311924156366
A-195,"bis({[bis(3,5,5-trimethylhexyl)carbamothioyl]sulfanyl})zinc","InChI=1S/2C19H39NS2.Zn/c2*1-15(13-18(3,4)5)9-11-20(17(21)22)12-10-16(2)14-19(6,7)8;/h2*15-16H,9-14H2,1-8H3,(H,21,22);/q;;+2/p-2",YRZWCIIGZCKHBM-UHFFFAOYSA-L,CC(CCN(CCC(C)CC(C)(C)C)C(=S)S[Zn]SC(=S)N(CCC(C)CC(C)(C)C)CCC(C)CC(C)(C)C)CC(C)(C)C,-6.1025269393,0.0,1,G1,754.6979999999995,13.388699999999977,214.935999999999,45.0,4.0,0.0,7.0,18.0,264.0,0.0,0.0,0.0,0.0,6.48,308.14172785807784,5.34545540362118,714.6494188420588
A-196,2-[4-(bromomethyl)phenyl]benzonitrile,"InChI=1S/C14H10BrN/c15-9-11-5-7-12(8-6-11)14-4-2-1-3-13(14)10-16/h1-8H,9H2",LFFIEVAMVPCZNA-UHFFFAOYSA-N,BrCc1ccc(cc1)c2ccccc2C#N,-6.6566491092,0.0,1,G1,272.14500000000004,4.120180000000003,69.22400000000003,16.0,1.0,0.0,2.0,2.0,78.0,2.0,0.0,0.0,2.0,23.79,103.47850884146429,2.4687472120822465,523.1767595439565
A-197,"2,2,6,6-tetramethylpiperidin-4-yl hexadecanoate 2,2,6,6-tetramethylpiperidin-4-yl octadecanoate","InChI=1S/C27H53NO2.C25H49NO2/c1-6-7-8-9-10-11-12-13-14-15-16-17-18-19-20-21-25(29)30-24-22-26(2,3)28-27(4,5)23-24;1-6-7-8-9-10-11-12-13-14-15-16-17-18-19-23(27)28-22-20-24(2,3)26-25(4,5)21-22/h24,28H,6-23H2,1-5H3;22,26H,6-21H2,1-5H3",KABHMUPUYPTLHI-UHFFFAOYSA-N,CCCCCCCCCCCCCCCCCC(=O)OC1CC(C)(C)NC(C)(C)C1.CCCCCCCCCCCCCCCC(=O)OC2CC(C)(C)NC(C)(C)C2,-6.214524895199999,1.0000000000000004,2,G2,819.3979999999995,15.420399999999969,250.67339999999876,58.0,6.0,2.0,6.0,32.0,344.0,0.0,2.0,2.0,2.0,76.66,361.9953267348446,5.81380906391017e-07,988.84852755604
A-198,N-(2-ethylhexyl)-7-methyloctanamide,"InChI=1S/C17H35NO/c1-5-7-12-16(6-2)14-18-17(19)13-10-8-9-11-15(3)4/h15-16H,5-14H2,1-4H3,(H,18,19)",CYJLFSMDQYFKRD-UHFFFAOYSA-N,CCCCC(CC)CNC(=O)CCCCCC(C)C,-5.731545252999999,0.0,1,G1,269.47299999999996,4.925500000000005,84.23870000000007,19.0,1.0,1.0,2.0,12.0,114.0,0.0,0.0,0.0,0.0,29.1,120.28970914182709,3.51254410984443,213.30760443279493
A-199,Doramectin,"InChI=1S/C50H74O14/c1-27-13-12-16-34-26-57-47-42(51)30(4)21-37(50(34,47)54)48(53)60-36-22-35(63-49(25-36)20-19-29(3)45(64-49)33-14-10-9-11-15-33)18-17-28(2)44(27)61-41-24-39(56-8)46(32(6)59-41)62-40-23-38(55-7)43(52)31(5)58-40/h12-13,16-17,19-21,27,29,31-33,35-47,51-52,54H,9-11,14-15,18,22-26H2,1-8H3/b13-12+,28-17+,34-16+/t27-,29-,31-,32-,35+,36-,37-,38-,39-,40-,41-,42+,43-,44?,45-,46?,47+,49+,50+/m0/s1",QLFZZSKTJWDQOS-NJPOTTGESA-N,CO[C@H]1C[C@@H](O[C@@H](C)[C@@H]1O)OC2[C@H](C)O[C@H](C[C@@H]2OC)OC3[C@@H](C)/C=C/C=C/4CO[C@@H]5[C@H](O)C(=C[C@@H](C(=O)O[C@H]6C[C@@H](C\C=C3/C)O[C@@]7(C6)O[C@@H]([C@@H](C)C=C7)C8CCCCC8)[C@]45O)C,-7.5558815137,0.0,1,G1,899.1279999999997,5.911600000000007,234.42539999999906,64.0,14.0,3.0,14.0,7.0,358.0,0.0,5.0,8.0,8.0,170.05999999999997,378.80642589580856,1.0810089105038068,1787.630132042587
A-201,"1,1':4',1''-terphenyl",InChI=1S/C18H14/c1-3-7-15(8-4-1)17-11-13-18(14-12-17)16-9-5-2-6-10-16/h1-14H,XJKSTNDFUHDPQJ-UHFFFAOYSA-N,c1ccc(cc1)c2ccc(cc2)c3ccccc3,-6.183335848,0.4618320760000003,2,G3,230.31,5.0206000000000035,77.31400000000004,18.0,0.0,0.0,0.0,2.0,86.0,3.0,0.0,0.0,3.0,0.0,107.54559153162505,1.951466168669556,548.7160655475084
A-203,pyrene,InChI=1S/C16H10/c1-3-11-7-9-13-5-2-6-14-10-8-12(4-1)15(11)16(13)14/h1-10H,BBEAQIROQSPTKN-UHFFFAOYSA-N,c1cc2ccc3cccc4ccc(c1)c2c34,-6.1787966156,0.0588200189844963,3,G5,202.25599999999997,4.584000000000002,70.14600000000003,16.0,0.0,0.0,0.0,0.0,74.0,4.0,0.0,0.0,4.0,0.0,93.45542159483816,2.5059556893606714,666.6198058168793
A-204,"1,4-dibutyl benzene-1,4-dicarboxylate","InChI=1S/C16H22O4/c1-3-5-11-19-15(17)13-7-9-14(10-8-13)16(18)20-12-6-4-2/h7-10H,3-6,11-12H2,1-2H3",LQLQDKBJAIILIQ-UHFFFAOYSA-N,CCCCOC(=O)c1ccc(cc1)C(=O)OCCCC,-6.40319542,0.688111365026897,6,G4,278.348,3.600400000000003,76.82300000000005,20.0,4.0,0.0,4.0,8.0,110.0,1.0,0.0,0.0,1.0,52.60000000000001,119.63095892256436,2.503712391104127,381.6079421689099
A-208,1-(2-ethylbutyl)cyclohexane-1-carbonitrile,"InChI=1S/C13H23N/c1-3-12(4-2)10-13(11-14)8-6-5-7-9-13/h12H,3-10H2,1-2H3",DRMOLJPDSCAGCC-UHFFFAOYSA-N,CCC(CC)CC1(CCCCC1)C#N,-6.5873382321000005,0.0,1,G1,193.33399999999997,4.286780000000004,59.82000000000005,14.0,1.0,0.0,1.0,4.0,80.0,0.0,1.0,1.0,1.0,23.79,88.50530492852835,2.556663389689811,191.77132754726787
A-209,1-(4-methoxyphenyl)-4-(4-nitrophenyl)piperazine,"InChI=1S/C17H19N3O3/c1-23-17-8-6-15(7-9-17)19-12-10-18(11-13-19)14-2-4-16(5-3-14)20(21)22/h2-9H,10-13H2,1H3",AVCKOFMRPAJEPN-UHFFFAOYSA-N,COc1ccc(cc1)N2CCN(CC2)c3ccc(cc3)[N+]([O-])=O,-6.9290130346000005,0.0,1,G1,313.35699999999997,2.9300000000000015,90.51640000000005,23.0,5.0,0.0,6.0,4.0,120.0,2.0,1.0,1.0,3.0,58.85,134.59356503642826,1.6177034957293241,662.487877093113
A-212,bis(8-methylnonyl) sebacate,"InChI=1S/C30H58O4/c1-27(2)21-15-9-7-13-19-25-33-29(31)23-17-11-5-6-12-18-24-30(32)34-26-20-14-8-10-16-22-28(3)4/h27-28H,5-26H2,1-4H3",OAXZVLMNNOOMGN-UHFFFAOYSA-N,CC(C)CCCCCCCOC(=O)CCCCCCCCC(=O)OCCCCCCCC(C)C,-7.2523945018,0.2754537344000001,2,G3,482.7900000000005,9.186800000000003,143.93399999999988,34.0,4.0,0.0,4.0,25.0,202.0,0.0,0.0,0.0,0.0,52.60000000000001,211.87270700443256,3.280659314844703,416.7216822476719
A-213,"6'-(dibutylamino)-3'-methyl-2'-(phenylamino)-3H-spiro[2-benzofuran-1,9'-xanthene]-3-one","InChI=1S/C35H36N2O3/c1-4-6-19-37(20-7-5-2)26-17-18-29-33(22-26)39-32-21-24(3)31(36-25-13-9-8-10-14-25)23-30(32)35(29)28-16-12-11-15-27(28)34(38)40-35/h8-18,21-23,36H,4-7,19-20H2,1-3H3",XAAILNNJDMIMON-UHFFFAOYSA-N,CCCCN(CCCC)c1ccc2c(Oc3cc(C)c(Nc4ccccc4)cc3C25OC(=O)c6ccccc56)c1,-7.4042503575,0.3246185347020405,3,G5,532.6840000000002,8.713220000000003,161.1881999999996,40.0,5.0,1.0,5.0,9.0,204.0,4.0,0.0,2.0,6.0,50.800000000000004,236.3036951018622,1.512692154995918,1540.0231874767644
A-215,"2,2-difluoro-1,3-benzodioxole-4-carbaldehyde",InChI=1S/C8H4F2O3/c9-8(10)12-6-3-1-2-5(4-11)7(6)13-8/h1-4H,NIBFJPXGNVPNHK-UHFFFAOYSA-N,FC1(F)Oc2cccc(C=O)c2O1,-2.1558333574,0.0,1,G1,186.11299999999997,1.8205999999999996,38.03250000000001,13.0,3.0,0.0,5.0,1.0,68.0,1.0,0.0,1.0,2.0,35.53,71.87513955967094,2.506530914969293,362.4068137607414
A-216,"1-amino-4-(ethylamino)-9,10-dioxo-9,10-dihydroanthracene-2-carbonitrile","InChI=1S/C17H13N3O2/c1-2-20-12-7-9(8-18)15(19)14-13(12)16(21)10-5-3-4-6-11(10)17(14)22/h3-7,20H,2,19H2,1H3",ATXPWKWYLDEURI-UHFFFAOYSA-N,CCNc1cc(C#N)c(N)c2C(=O)c3ccccc3C(=O)c12,-7.6382805905,0.0,1,G1,291.31,2.3476800000000004,83.04010000000002,22.0,5.0,2.0,5.0,2.0,108.0,2.0,0.0,1.0,3.0,95.97999999999999,126.91275350619183,2.3868099542133567,862.938264047108
A-219,(3-aminopropyl)[(9Z)-octadec-9-en-1-yl]amine; bis((9Z)-octadec-9-enoic acid),"InChI=1S/C21H44N2.2C18H34O2/c1-2-3-4-5-6-7-8-9-10-11-12-13-14-15-16-17-20-23-21-18-19-22;2*1-2-3-4-5-6-7-8-9-10-11-12-13-14-15-16-17-18(19)20/h9-10,23H,2-8,11-22H2,1H3;2*9-10H,2-8,11-17H2,1H3,(H,19,20)/b3*10-9-",VTXWSJAEIWTHCL-DJNDIFCPSA-N,CCCCCCCC\C=C/CCCCCCCCNCCCN.CCCCCCCC\C=C/CCCCCCCC(O)=O.CCCCCCCC\C=C/CCCCCCCC(O)=O,-8.2501920599,0.0,1,G1,889.5329999999993,18.179299999999984,280.1686999999993,63.0,4.0,4.0,6.0,49.0,374.0,0.0,0.0,0.0,0.0,112.65,393.92012722964535,-8.602325292505161e-07,883.0930024861892
A-220,"2-ethylhexyl 4-[(4-{[4-(tert-butylcarbamoyl)phenyl]amino}-6-[(4-{[(2-ethylhexyl)oxy]carbonyl}phenyl)amino]-1,3,5-triazin-2-yl)amino]benzoate","InChI=1S/C44H59N7O5/c1-8-12-14-30(10-3)28-55-39(53)33-18-24-36(25-19-33)46-42-48-41(45-35-22-16-32(17-23-35)38(52)51-44(5,6)7)49-43(50-42)47-37-26-20-34(21-27-37)40(54)56-29-31(11-4)15-13-9-2/h16-27,30-31H,8-15,28-29H2,1-7H3,(H,51,52)(H3,45,46,47,48,49,50)",OSCJHTSDLYVCQC-UHFFFAOYSA-N,CCCCC(CC)COC(=O)c1ccc(Nc2nc(Nc3ccc(cc3)C(=O)NC(C)(C)C)nc(Nc4ccc(cc4)C(=O)OCC(CC)CCCC)n2)cc1,-8.1852587653,0.41195437045000016,2,G3,765.9999999999998,10.377099999999993,223.39729999999926,56.0,11.0,4.0,12.0,21.0,300.0,4.0,0.0,0.0,4.0,156.45999999999998,331.5664038052276,1.500952066139594,1746.2812771982633
A-222,dioxovanadium,InChI=1S/2O.V,GRUMUEUJTSXQOI-UHFFFAOYSA-N,O=[V]=O,-4.4002500912,1.5289054220176332,4,G4,82.94,-0.2401,1.373,3.0,2.0,0.0,3.0,0.0,17.0,0.0,0.0,0.0,0.0,34.14,24.360396233196912,3.2659863237109046,23.774437510817343
A-224,1-dodecylpyridin-1-ium chloride,"InChI=1S/C17H30N.ClH/c1-2-3-4-5-6-7-8-9-10-12-15-18-16-13-11-14-17-18;/h11,13-14,16-17H,2-10,12,15H2,1H3;1H/q+1;/p-1",GKQHIYSTBXDYNQ-UHFFFAOYSA-M,[Cl-].CCCCCCCCCCCC[n+]1ccccc1,-0.4539105371,0.0,1,G1,283.88699999999994,1.8989999999999991,78.48100000000007,19.0,0.0,0.0,2.0,11.0,110.0,1.0,0.0,0.0,1.0,3.88,125.39342121234755,3.239997015602847e-06,273.8503707227377
A-225,"2-(2,6-dimethylphenoxy)acetic acid","InChI=1S/C10H12O3/c1-7-4-3-5-8(2)10(7)13-6-9(11)12/h3-5H,6H2,1-2H3,(H,11,12)",MLBCURLNKYKBEQ-UHFFFAOYSA-N,Cc1cccc(C)c1OCC(O)=O,-2.2566445306,0.47913080004188235,3,G5,180.20299999999997,1.76684,49.04680000000002,13.0,2.0,1.0,3.0,3.0,70.0,1.0,0.0,0.0,1.0,46.53,76.96047265883006,2.806920561742865,297.69593883291583
A-227,"({bis[(2-ethylhexanoyl)oxy]-2,4-dioxa-3-bora-1,5-dicobaltapentan-3-yl}oxy)cobaltio 2-ethylhexanoate","InChI=1S/3C8H16O2.BO3.3Co/c3*1-3-5-6-7(4-2)8(9)10;2-1(3)4;;;/h3*7H,3-6H2,1-2H3,(H,9,10);;;;/q;;;-3;+1;+2;+3/p-3",HRNSQLGPRFFUNA-UHFFFAOYSA-K,CCCCC(CC)C(=O)O[Co]OB(O[Co])O[Co](OC(=O)C(CC)CCCC)OC(=O)C(CC)CCCC,-1.8254561434999999,0.0,1,G1,665.226,6.037400000000007,127.2030000000001,37.0,9.0,0.0,13.0,23.0,225.0,0.0,0.0,0.0,0.0,106.59000000000003,243.45438907701455,5.268005358026134,600.2721926824928