ID,Name,InChI,InChIKey,SMILES,Solubility,SD,Ocurrences,Group,MolWt,MolLogP,MolMR,HeavyAtomCount,NumHAcceptors,NumHDonors,NumHeteroatoms,NumRotatableBonds,NumValenceElectrons,NumAromaticRings,NumSaturatedRings,NumAliphaticRings,RingCount,TPSA,LabuteASA,BalabanJ,BertzCT
A-3769,"5-(benzoylamino)-4-hydroxy-3-[[1-sulpho-6-[[2-(sulphooxy)ethyl]sulphonyl]-2-naphthyl]azo]naphthalene-2,7-disulphonic acid, sodium salt","InChI=1S/C29H23N3O17S5.4Na/c33-27-25-18(13-20(51(37,38)39)15-23(25)30-29(34)16-4-2-1-3-5-16)14-24(52(40,41)42)26(27)32-31-22-9-6-17-12-19(7-8-21(17)28(22)53(43,44)45)50(35,36)11-10-49-54(46,47)48;;;;/h1-9,12-15,31H,10-11H2,(H,30,34)(H,37,38,39)(H,40,41,42)(H,43,44,45)(H,46,47,48);;;;/q;4*+1/p-4/b32-26+;;;;",LWOVLHCKRPSUIB-CICQTRKRSA-J,[Na+].[Na+].[Na+].[Na+].[O-][S](=O)(=O)OCC[S](=O)(=O)c1ccc2c(ccc(N\N=C/3C(=O)c4c(NC(=O)c5ccccc5)cc(cc4C=C3[S]([O-])(=O)=O)[S]([O-])(=O)=O)c2[S]([O-])(=O)=O)c1,-0.3893149412,0.0,1,G1,933.7700000000003,-11.282700000000023,181.47599999999983,58.0,19.0,2.0,29.0,12.0,286.0,4.0,0.0,1.0,5.0,342.72999999999996,419.4907337701833,4.204996193406231e-06,2912.1515805553954
A-3771,"tetrasodium 2,2'-ethene-1,2-diylbis[5-({4-morpholin-4-yl-6-[(4-sulfonatophenyl)amino]-1,3,5-triazin-2-yl}amino)benzenesulfonate]","InChI=1S/C28H29N7O10S3.C14H17N5O4S.4Na/c1-29-21-6-4-18(24(16-21)47(39,40)41)2-3-19-5-7-22(17-25(19)48(42,43)44)31-27-32-26(33-28(34-27)35-12-14-45-15-13-35)30-20-8-10-23(11-9-20)46(36,37)38;1-10-15-13(18-14(16-10)19-6-8-23-9-7-19)17-11-2-4-12(5-3-11)24(20,21)22;;;;/h2-11,16-17,29H,12-15H2,1H3,(H,36,37,38)(H,39,40,41)(H,42,43,44)(H2,30,31,32,33,34);2-5H,6-9H2,1H3,(H,20,21,22)(H,15,16,17,18);;;;/p-4/b3-2+;;;;;",XQESDAXKAMZHMR-YWURNZKTSA-J,[Na].[Na].[Na].[Na].CNc1ccc(/C=C/c2ccc(Nc3nc(Nc4ccc(cc4)[S]([O-])(=O)=O)nc(n3)N5CCOCC5)cc2[S]([O-])(=O)=O)c(c1)[S]([O-])(=O)=O.Cc6nc(Nc7ccc(cc7)[S]([O-])(=O)=O)nc(n6)N8CCOCC8,-0.48433581049999996,0.0,1,G1,1159.0960000000002,1.260920000000003,279.4146000000001,76.0,26.0,4.0,34.0,15.0,386.0,6.0,2.0,2.0,8.0,379.19999999999993,526.8329822874045,4.5964281444826577e-07,3440.3273659005235
A-3772,Trimethylsulfoxonium iodide,"InChI=1S/C3H9OS.HI/c1-5(2,3)4;/h1-3H3;1H/q+1;/p-1",BPLKQGGAXWRFOE-UHFFFAOYSA-M,[I-].C[S+](C)(C)=O,-0.7568844320999999,0.047324617499999944,2,G3,220.075,-2.6206999999999985,25.82349999999999,6.0,1.0,0.0,3.0,0.0,40.0,0.0,0.0,0.0,0.0,17.07,56.955225238796054,0.0,56.92878689342032
A-3773,"4-methylbenzene-1,3-diamine","InChI=1S/C7H10N2/c1-5-2-3-6(8)4-7(5)9/h2-4H,8-9H2,1H3",VOZKAJLKRJDJLL-UHFFFAOYSA-N,Cc1ccc(N)cc1N,-0.5071845321,0.0,1,G1,122.17100000000002,1.1594200000000001,40.0038,9.0,2.0,2.0,2.0,0.0,48.0,1.0,0.0,0.0,1.0,52.04,54.476126627918994,3.171678030440915,218.15617759993404
A-3774,diaminotoluene,"InChI=1S/C7H10N2/c1-5-4-6(8)2-3-7(5)9/h2-4H,8-9H2,1H3",OBCSAIDCZQSFQH-UHFFFAOYSA-N,Cc1cc(N)ccc1N,-0.5071845321,0.07630508160000002,2,G3,122.171,1.1594200000000001,40.0038,9.0,2.0,2.0,2.0,0.0,48.0,1.0,0.0,0.0,1.0,52.04,54.476126627919,3.1716780304409156,218.15617759993404
A-3775,Cobalt sulfate heptahydrate,"InChI=1S/Co.H2O4S.7H2O/c;1-5(2,3)4;;;;;;;/h;(H2,1,2,3,4);7*1H2/q+2;;;;;;;;/p-2",MEYVLGVRTYSQHI-UHFFFAOYSA-L,O.O.O.O.O.O.O.[Co++].[O-][S]([O-])(=O)=O,0.1271332296,0.0,1,G1,281.10100000000006,-7.113399999999995,35.7712,13.0,4.0,0.0,13.0,0.0,95.0,0.0,0.0,0.0,0.0,300.76,83.69149003209078,-2.8571428424107142e-09,93.2586863990795
A-3776,sodium (dimethylcarbamothioyl)sulfanide,"InChI=1S/C3H7NS2.Na/c1-4(2)3(5)6;/h1-2H3,(H,5,6);/q;+1/p-1",VMSRVIHUFHQIAL-UHFFFAOYSA-M,[Na+].CN(C)C([S-])=S,0.41689219240000003,0.0,1,G1,143.212,-2.6161999999999983,33.65,7.0,2.0,0.0,4.0,0.0,36.0,0.0,0.0,0.0,0.0,3.24,77.15621546014468,0.0,63.95524697820139
A-3778,tris[4-(diethylamino)phenyl]methylium acetate,"InChI=1S/C31H42N3.C2H4O2/c1-7-32(8-2)28-19-13-25(14-20-28)31(26-15-21-29(22-16-26)33(9-3)10-4)27-17-23-30(24-18-27)34(11-5)12-6;1-2(3)4/h13-24H,7-12H2,1-6H3;1H3,(H,3,4)/q+1;/p-1",CBMNJIRTNNMVJC-UHFFFAOYSA-M,CCN(CC)c1ccc(cc1)[C+](c2ccc(cc2)N(CC)CC)c3ccc(cc3)N(CC)CC.CC([O-])=O,-0.13956089789999998,0.0,1,G1,515.7420000000004,6.000590000000006,161.23899999999966,38.0,5.0,0.0,5.0,12.0,204.0,3.0,0.0,0.0,3.0,49.85,230.2608112639533,1.1814700948742671e-06,930.7842165627596
A-3779,ammonium chloride,InChI=1S/ClH.H3N/h1H;1H3,NLXLAEXVIDQMFP-UHFFFAOYSA-N,[NH4+].[Cl-],0.8422541039,0.013027077900000017,2,G3,53.492000000000004,-2.6198,5.9848,2.0,0.0,1.0,2.0,0.0,16.0,0.0,0.0,0.0,0.0,36.5,19.657321376399747,0.0,2.0
A-3781,3-morpholin-4-yloxadiazol-3-ium-5-amine chloride,"InChI=1S/C6H11N4O2.ClH/c7-6-5-10(8-12-6)9-1-3-11-4-2-9;/h5H,1-4,7H2;1H/q+1;/p-1",ZRFWHHCXSSACAW-UHFFFAOYSA-M,[Cl-].Nc1cn(n[o+]1)N2CCOCC2,0.1471983169,0.0,1,G1,206.63299999999992,-3.688399999999998,42.08240000000002,13.0,5.0,1.0,7.0,1.0,74.0,1.0,1.0,1.0,2.0,67.61,81.58524587980075,8.449997631834017e-07,260.89185973221515
A-3786,(2Z)-4-butoxy-4-oxobut-2-enoic acid,"InChI=1S/C8H12O4/c1-2-3-6-12-8(11)5-4-7(9)10/h4-5H,2-3,6H2,1H3,(H,9,10)/b5-4-",UTOVMEACOLCUCK-PLNGDYQASA-N,CCCCOC(=O)\C=C/C(O)=O,-0.6677809794,0.0,1,G1,172.17999999999998,0.9704999999999999,42.64280000000001,12.0,3.0,1.0,4.0,5.0,68.0,0.0,0.0,0.0,0.0,63.6,70.83506597821197,3.5265840834033573,183.4968817653618
A-3788,5-[(2-hydroxyethyl)amino]-2-methylphenol,"InChI=1S/C9H13NO2/c1-7-2-3-8(6-9(7)12)10-4-5-11/h2-3,6,10-12H,4-5H2,1H3",YGRFRBUGAPOJDU-UHFFFAOYSA-N,Cc1ccc(NCCO)cc1O,-0.6550553282,0.0,1,G1,167.20800000000003,1.1048199999999997,48.41930000000003,12.0,3.0,3.0,3.0,3.0,66.0,1.0,0.0,0.0,1.0,52.489999999999995,71.66455915068684,2.686708199076686,260.70548992551977
A-3789,"p-[4,5-dihydro-4-[[2-methoxy-5-methyl-4-[[2-(sulphooxy)ethyl]sulphonyl]phenyl]azo]-3-methyl-5-oxo-1H-pyrazol-1-yl]benzenesulphonic acid, sodium salt","InChI=1S/C20H22N4O11S3.2Na/c1-12-10-16(17(34-3)11-18(12)36(26,27)9-8-35-38(31,32)33)21-22-19-13(2)23-24(20(19)25)14-4-6-15(7-5-14)37(28,29)30;;/h4-7,10-11,19H,8-9H2,1-3H3,(H,28,29,30)(H,31,32,33);;/q;2*+1/p-2",VMRASBDRVJTOLR-UHFFFAOYSA-L,[Na+].[Na+].COc1cc(c(C)cc1N=NC2C(=NN(C2=O)c3ccc(cc3)[S]([O-])(=O)=O)C)[S](=O)(=O)CCO[S]([O-])(=O)=O,-0.23900392620000002,0.0,1,G1,634.5780000000002,-4.95877999999999,128.7372,40.0,14.0,0.0,20.0,10.0,206.0,2.0,0.0,1.0,3.0,224.38999999999996,274.7813591903995,3.999995446338762e-06,1644.8770014868203
A-3791,(2S)-4-hydroxypyrrolidine-2-carboxylic acid,"InChI=1S/C5H9NO3/c7-3-1-4(5(8)9)6-2-3/h3-4,6-7H,1-2H2,(H,8,9)",PMMYEEVYMWASQN-UHFFFAOYSA-N,OC1CNC(C1)C(O)=O,0.4399221153,0.0,1,G1,131.13099999999997,-1.2061999999999997,30.050299999999993,9.0,3.0,3.0,4.0,1.0,52.0,0.0,1.0,1.0,1.0,69.56,52.493040119930576,2.3885666997264847,125.3715149046361
A-3793,sodium 4-[(3-amino-4-methylbenzoyl)amino]benzenesulfonate,"InChI=1S/C14H14N2O4S.Na/c1-9-2-3-10(8-13(9)15)14(17)16-11-4-6-12(7-5-11)21(18,19)20;/h2-8H,15H2,1H3,(H,16,17)(H,18,19,20);/q;+1/p-1",QJGAGCZWQGHNDW-UHFFFAOYSA-M,[Na+].Cc1ccc(cc1N)C(=O)Nc2ccc(cc2)[S]([O-])(=O)=O,-0.9492775868000001,0.0,1,G1,328.32500000000005,-1.2623799999999985,77.94980000000002,22.0,5.0,2.0,8.0,3.0,110.0,2.0,0.0,0.0,2.0,112.32,150.31169216777138,2.4199981585097732e-06,788.9901782638012
A-3794,ethyl 2-methylbut-3-enoate,"InChI=1S/C7H12O2/c1-4-6(3)7(8)9-5-2/h4,6H,1,5H2,2-3H3",WDCCXADRWCXXOR-UHFFFAOYSA-N,CCOC(=O)C(C)C=C,-1.5763108556999998,0.0,1,G1,128.17099999999996,1.3716000000000002,35.99399999999999,9.0,2.0,0.0,2.0,3.0,52.0,0.0,0.0,0.0,0.0,26.3,55.514368011575584,3.583388067911339,107.48377837619049
A-3795,N-methylhydrazinecarbothioamide,"InChI=1S/C2H7N3S/c1-4-2(6)5-3/h3H2,1H3,(H2,4,5,6)",PTVZQOAHCSKAAS-UHFFFAOYSA-N,CNC(=S)NN,-0.465572855,1.4760382238499998,2,G2,105.16600000000001,-1.0459999999999996,28.980800000000006,6.0,2.0,3.0,4.0,0.0,36.0,0.0,0.0,0.0,0.0,50.08,41.87272447389481,2.9881608821342693,46.75488750216347
A-3798,potassium chloride,InChI=1S/ClH.K/h1H;/q;+1/p-1,WCUXLLCKKVVCTQ-UHFFFAOYSA-M,[Cl-].[K+],0.6777748798000001,0.019303695470876365,4,G5,74.551,-5.992,0.0,2.0,0.0,0.0,2.0,0.0,8.0,0.0,0.0,0.0,0.0,0.0,62.44413570781571,0.0,2.0
A-3799,naphthalene-2-sulfonic acid,"InChI=1S/C10H8O3S/c11-14(12,13)10-6-5-8-3-1-2-4-9(8)7-10/h1-7H,(H,11,12,13)",KVBGVZZKJNLNJU-UHFFFAOYSA-N,O[S](=O)(=O)c1ccc2ccccc2c1,0.230443278,0.7825525786862126,3,G4,208.238,2.0865,53.76260000000002,14.0,2.0,1.0,4.0,1.0,72.0,2.0,0.0,0.0,2.0,54.37,81.7417036612728,2.749372328291261,572.6917341665245
A-3804,dimethyl 2-methylenesuccinate,"InChI=1S/C7H10O4/c1-5(7(9)11-3)4-6(8)10-2/h1,4H2,2-3H3",ZWWQRMFIZFPUAA-UHFFFAOYSA-N,COC(=O)CC(=C)C(=O)OC,-0.653770318,0.0,1,G1,158.153,0.27869999999999995,37.78900000000001,11.0,4.0,0.0,4.0,3.0,62.0,0.0,0.0,0.0,0.0,52.60000000000001,64.78943534112624,3.8759366325229765,182.87959510731494
A-3805,2-(2-phenoxyethoxy)ethan-1-ol,"InChI=1S/C10H14O3/c11-6-7-12-8-9-13-10-4-2-1-3-5-10/h1-5,11H,6-9H2",ZUAURMBNZUCEAF-UHFFFAOYSA-N,OCCOCCOc1ccccc1,-0.7165256146,0.0,1,G1,182.21900000000002,1.0743000000000003,49.841800000000035,13.0,3.0,1.0,3.0,6.0,72.0,1.0,0.0,0.0,1.0,38.69,77.91249578829317,2.0653801840299586,210.66965993048052
A-3806,"7-hydroxy-3,7-dimethyloctanal","InChI=1S/C10H20O2/c1-9(6-8-11)5-4-7-10(2,3)12/h8-9,12H,4-7H2,1-3H3",WPFVBOQKRVRMJB-UHFFFAOYSA-N,CC(CCCC(C)(C)O)CC=O,-0.6921365673000001,0.0,1,G1,172.268,2.1527000000000003,49.99380000000003,12.0,2.0,1.0,2.0,6.0,72.0,0.0,0.0,0.0,0.0,37.3,74.97948590963878,3.3646911205899195,124.29049405545331
A-3807,N-propylpropan-1-amine,"InChI=1S/C6H15N/c1-3-5-7-6-4-2/h7H,3-6H2,1-2H3",WEHWNAOGRSTTBQ-UHFFFAOYSA-N,CCCNCCC,-0.461082427,0.11194121350000001,2,G3,101.193,1.396,33.45169999999999,7.0,1.0,1.0,1.0,4.0,44.0,0.0,0.0,0.0,0.0,12.03,46.11382378342063,2.447472887876344,23.360990398949916
A-3808,aniline,"InChI=1S/C6H7N/c7-6-4-2-1-3-5-6/h1-5H,7H2",PAYRUJLWNCNPSJ-UHFFFAOYSA-N,Nc1ccccc1,-0.42501689530000003,0.006117228249999995,2,G3,93.12899999999999,1.2688000000000001,30.8544,7.0,1.0,1.0,1.0,0.0,36.0,1.0,0.0,0.0,1.0,26.02,42.771293816509676,3.0214653097240864,134.10736969541455
A-3811,sodium hydrogen-5-sulphoisophthalate,"InChI=1S/C8H6O7S.Na/c9-7(10)4-1-5(8(11)12)3-6(2-4)16(13,14)15;/h1-3H,(H,9,10)(H,11,12)(H,13,14,15);/q;+1/p-1",YXTFRJVQOWZDPP-UHFFFAOYSA-M,[Na+].OC(=O)c1cc(cc(c1)[S]([O-])(=O)=O)C(O)=O,0.1093959475,0.0,1,G1,268.178,-3.008899999999999,48.323800000000006,17.0,5.0,2.0,9.0,3.0,86.0,1.0,0.0,0.0,1.0,131.8,118.11483468552231,2.559999044800369e-06,530.9864682954485
A-3812,"hexasodium 8-{[(2E)-6-chloro-4-[(4-{[(4Z)-6-chloro-4-({8-oxido-6-sulfo-3-sulfonato-7-[(E)-2-(2-sulfonatophenyl)diazen-1-yl]naphthalen-1-yl}imino)-4,5-dihydro-1,3,5-triazin-2-yl]amino}phenyl)amino]-1,2-dihydro-1,3,5-triazin-2-ylidene]amino}-3-sulfo-6-sulfonato-2-[(E)-2-(2-sulfonatophenyl)diazen-1-yl]naphthalen-1-olate","InChI=1S/C44H30Cl2N14O20S6.6Na/c45-39-51-41(55-43(53-39)49-27-17-23(81(63,64)65)13-19-15-31(85(75,76)77)35(37(61)33(19)27)59-57-25-5-1-3-7-29(25)83(69,70)71)47-21-9-11-22(12-10-21)48-42-52-40(46)54-44(56-42)50-28-18-24(82(66,67)68)14-20-16-32(86(78,79)80)36(38(62)34(20)28)60-58-26-6-2-4-8-30(26)84(72,73)74;;;;;;/h1-18,57-58H,(H,63,64,65)(H,66,67,68)(H,69,70,71)(H,72,73,74)(H,75,76,77)(H,78,79,80)(H2,47,49,51,53,55)(H2,48,50,52,54,56);;;;;;/q;6*+1/p-6/b59-35-,60-36-;;;;;;",MPEFHPPVCSSFRQ-IGHLAAJMSA-H,[Na+].[Na+].[Na+].[Na+].[Na+].[Na+].[O-][S](=O)(=O)c1cc(Nc2nc(Cl)nc(Nc3ccc(Nc4nc(Cl)nc(Nc5cc(cc6C=C(/C(=N/Nc7ccccc7[S]([O-])(=O)=O)C(=O)c56)[S]([O-])(=O)=O)[S]([O-])(=O)=O)n4)cc3)n2)c8C(=O)C(=N/Nc9ccccc9[S]([O-])(=O)=O)\C(=Cc8c1)[S]([O-])(=O)=O,-0.6303809029,0.0,1,G1,1470.0020000000002,-14.92079999999998,292.99240000000015,92.0,34.0,6.0,48.0,18.0,446.0,7.0,0.0,2.0,9.0,551.5799999999999,662.832405349511,3.6816609778588267e-06,4685.129637636957
A-3817,methyl(triphenyl)phosphonium bromide,"InChI=1S/C19H18P.BrH/c1-20(17-11-5-2-6-12-17,18-13-7-3-8-14-18)19-15-9-4-10-16-19;/h2-16H,1H3;1H/q+1;/p-1",LSEFCHWGJNHZNT-UHFFFAOYSA-M,[Br-].C[P+](c1ccccc1)(c2ccccc2)c3ccccc3,-0.0189230333,0.0,1,G1,357.2310000000001,0.6143000000000012,91.07200000000005,21.0,0.0,0.0,2.0,3.0,106.0,3.0,0.0,0.0,3.0,0.0,137.5078162188383,1.6133324306005218e-06,569.0392460507381
A-3819,1-methylpyridinium chloride,"InChI=1S/C6H8N.ClH/c1-7-5-3-2-4-6-7;/h2-6H,1H3;1H/q+1;/p-1",QAIGYXWRIHZZAA-UHFFFAOYSA-M,[Cl-].C[n+]1ccccc1,0.42018288909999996,0.0,1,G1,129.58999999999997,-2.484899999999998,27.617999999999988,8.0,0.0,0.0,2.0,0.0,44.0,1.0,0.0,0.0,1.0,3.88,55.37905795398483,4.899999597500033e-07,138.45588524101132
A-3820,"trisodium 7-{2-[2-(carbamoylamino)-4-{[4-({2-[2-(ethenesulfonyl)ethoxy]ethyl}amino)-6-fluoro-1,3,5-triazin-2-yl]amino}phenyl]diazen-1-yl}naphthalene-1,3,6-trisulfonate","InChI=1S/C26H26FN9O13S4.3Na/c1-2-50(38,39)8-7-49-6-5-29-25-32-23(27)33-26(34-25)30-15-3-4-18(19(11-15)31-24(28)37)35-36-20-13-17-14(10-22(20)53(46,47)48)9-16(51(40,41)42)12-21(17)52(43,44)45;;;/h2-4,9-13H,1,5-8H2,(H3,28,31,37)(H,40,41,42)(H,43,44,45)(H,46,47,48)(H2,29,30,32,33,34);;;/q;3*+1/p-3",BTCMRMVIDXSNEW-UHFFFAOYSA-K,[Na+].[Na+].[Na+].NC(=O)Nc1cc(Nc2nc(F)nc(NCCOCC[S](=O)(=O)C=C)n2)ccc1N=Nc3cc4c(cc(cc4[S]([O-])(=O)=O)[S]([O-])(=O)=O)cc3[S]([O-])(=O)=O,-0.4145597239,0.0,1,G1,885.7560000000004,-7.475400000000016,178.02189999999982,56.0,20.0,4.0,30.0,16.0,284.0,4.0,0.0,0.0,4.0,357.54,384.37955487963865,5.226659728509766e-06,2607.2635268072636
A-3821,2-ethyl-3-methylpyrazine,"InChI=1S/C7H10N2/c1-3-7-6(2)8-4-5-9-7/h4-5H,3H2,1-2H3",LNIMMWYNSBZESE-UHFFFAOYSA-N,CCc1nccnc1C,0.44451078829999996,0.0,1,G1,122.17099999999998,1.34742,36.147,9.0,2.0,0.0,2.0,1.0,48.0,1.0,0.0,0.0,1.0,25.78,54.96552542457981,3.0065240073265844,195.86256853719752
A-3822,hydroxyazanium chloride,"InChI=1S/ClH.H3NO/c;1-2/h1H;2H,1H2",WTDHULULXKLSOZ-UHFFFAOYSA-N,[H+].[Cl-].NO,0.6895503556999999,0.0,1,G1,69.491,-3.5492,7.0859,3.0,2.0,2.0,3.0,0.0,22.0,0.0,0.0,0.0,0.0,46.25,26.1003634841646,-4.9999999750000005e-09,8.0
A-3825,N-(prop-2-enamidomethyl)prop-2-enamide,"InChI=1S/C7H10N2O2/c1-3-6(10)8-5-9-7(11)4-2/h3-4H,1-2,5H2,(H,8,10)(H,9,11)",ZIUHHBKFKCYYJD-UHFFFAOYSA-N,C=CC(=O)NCNC(=O)C=C,-0.6552426764,0.0,1,G1,154.16899999999998,-0.4517000000000002,41.546400000000006,11.0,2.0,2.0,4.0,4.0,60.0,0.0,0.0,0.0,0.0,58.2,64.9724662171443,3.4121905349590214,166.87959510731497
A-3830,L-sorbosonic acid,"InChI=1S/C6H10O7/c7-1-2(8)3(9)4(10)5(11)6(12)13/h2-4,7-10H,1H2,(H,12,13)/t2-,3+,4-/m0/s1",VBUYCZFBVCCYFD-NUNKFHFFSA-N,OC[C@H](O)[C@@H](O)[C@H](O)C(=O)C(O)=O,0.2373207652,0.0,1,G1,194.13899999999998,-3.2849,37.749,13.0,6.0,5.0,7.0,5.0,76.0,0.0,0.0,0.0,0.0,135.29000000000002,72.85817456088017,4.327344284336427,201.1594480971451
A-3831,Methyl morpholine oxide,"InChI=1S/C5H11NO2/c1-6(7)2-4-8-5-3-6/h2-5H2,1H3",LFTLOKWAGJYHHR-UHFFFAOYSA-N,C[N+]1([O-])CCOCC1,0.4563099285,0.0,1,G1,117.14800000000001,-0.039000000000000146,30.104399999999984,8.0,2.0,0.0,3.0,0.0,48.0,0.0,1.0,1.0,1.0,32.29,49.024810969866316,2.327882879407043,74.49785513558373
A-3832,tris(2-hydroxyethanaminium) citrate,"InChI=1S/C6H8O7.3C2H7NO/c7-3(8)1-6(13,5(11)12)2-4(9)10;3*3-1-2-4/h13H,1-2H2,(H,7,8)(H,9,10)(H,11,12);3*4H,1-3H2",USDOPHAAWSJWLS-UHFFFAOYSA-N,[NH3+]CCO.[NH3+]CCO.[NH3+]CCO.OC(CC([O-])=O)(CC([O-])=O)C([O-])=O,-0.050160116399999996,0.0,1,G1,375.37500000000017,-10.590800000000009,73.7275,25.0,10.0,7.0,13.0,8.0,152.0,0.0,0.0,0.0,0.0,284.22999999999996,143.83498240332148,-1.4999999707265635e-07,309.5929112803502
A-3833,sodium 2-[(2-aminoethyl)amino]ethanesulfonate,"InChI=1S/C4H12N2O3S.Na/c5-1-2-6-3-4-10(7,8)9;/h6H,1-5H2,(H,7,8,9);/q;+1/p-1",VRRABDXZDGRGPC-UHFFFAOYSA-M,[Na+].NCCNCC[S]([O-])(=O)=O,0.24453595420000002,0.0,1,G1,190.2,-4.9160999999999975,36.48830000000001,11.0,5.0,2.0,7.0,5.0,62.0,0.0,0.0,0.0,0.0,95.25,88.76586588439268,0.0,170.1759840983413
A-3834,"trisodium 2-[(E)-2-{4-[(E)-2-{4-[(4-amino-6-chloro-1,3,5-triazin-2-yl)amino]-5-sulfonatonaphthalen-1-yl}diazen-1-yl]-2,5-dimethylphenyl}diazen-1-yl]benzene-1,4-disulfonate","InChI=1S/C27H22ClN9O9S3.3Na/c1-13-11-20(36-37-21-12-15(47(38,39)40)6-9-22(21)48(41,42)43)14(2)10-19(13)35-34-17-7-8-18(30-27-32-25(28)31-26(29)33-27)24-16(17)4-3-5-23(24)49(44,45)46;;;/h3-12H,1-2H3,(H,38,39,40)(H,41,42,43)(H,44,45,46)(H3,29,30,31,32,33);;;/q;3*+1/p-3",QODWDUXKFKJVCQ-UHFFFAOYSA-K,[Na+].[Na+].[Na+].Cc1cc(N=Nc2cc(ccc2[S]([O-])(=O)=O)[S]([O-])(=O)=O)c(C)cc1N=Nc3ccc(Nc4nc(N)nc(Cl)n4)c5c3cccc5[S]([O-])(=O)=O,-0.3869456913,0.0,1,G1,814.1269999999998,-3.8240599999999976,171.07969999999983,52.0,18.0,2.0,25.0,9.0,254.0,5.0,0.0,0.0,5.0,297.76,367.8858601357954,3.1211078340461535e-06,2562.6944939041164
A-3835,potassium 3-(acryloyloxy)propane-1-sulfonate,"InChI=1S/C6H10O5S.K/c1-2-6(7)11-4-3-5-12(8,9)10;/h2H,1,3-5H2,(H,8,9,10);/q;+1/p-1",VSFOXJWBPGONDR-UHFFFAOYSA-M,[K+].[O-][S](=O)(=O)CCCOC(=O)C=C,1.1562683245,0.0,1,G1,232.29799999999994,-3.345099999999997,40.33720000000001,13.0,5.0,0.0,7.0,5.0,70.0,0.0,0.0,0.0,0.0,83.5,119.70062660258219,0.0,258.1981764922963
A-3836,"trisodium 1-amino-4-[[3-[[4-chloro-6-[(3-sulphonatophenyl)amino]-1,3,5-triazin-2-yl]amino]-2,4,6-trimethyl-5-sulphonatophenyl]amino]-9,10-dihydro-9,10-dioxoanthracene-2-sulphonate","InChI=1S/C32H26ClN7O11S3.3Na/c1-13-25(36-20-12-21(53(46,47)48)24(34)23-22(20)27(41)18-9-4-5-10-19(18)28(23)42)14(2)29(54(49,50)51)15(3)26(13)37-32-39-30(33)38-31(40-32)35-16-7-6-8-17(11-16)52(43,44)45;;;/h4-12,36H,34H2,1-3H3,(H,43,44,45)(H,46,47,48)(H,49,50,51)(H2,35,37,38,39,40);;;/q;3*+1/p-3",ZUCXUTRTSQLRCV-UHFFFAOYSA-K,[Na+].[Na+].[Na+].Cc1c(Nc2nc(Cl)nc(Nc3cccc(c3)[S]([O-])(=O)=O)n2)c(C)c(c(C)c1Nc4cc(c(N)c5C(=O)c6ccccc6C(=O)c45)[S]([O-])(=O)=O)[S]([O-])(=O)=O,-0.4244279852,0.0,1,G1,882.1980000000001,-5.237039999999996,189.83109999999985,57.0,18.0,4.0,25.0,9.0,280.0,5.0,0.0,1.0,6.0,306.5199999999999,396.87949787811,2.900830050697381e-06,2850.792290516484
A-3837,"trisodium 1-amino-4-{[3-({4-chloro-6-[(2-sulfonatophenyl)amino]-1,3,5-triazin-2-yl}amino)-2,4,6-trimethyl-5-sulfonatophenyl]amino}-9,10-dioxo-9,10-dihydroanthracene-2-sulfonate","InChI=1S/C32H26ClN7O11S3.3Na/c1-13-25(35-19-12-21(53(46,47)48)24(34)23-22(19)27(41)16-8-4-5-9-17(16)28(23)42)14(2)29(54(49,50)51)15(3)26(13)37-32-39-30(33)38-31(40-32)36-18-10-6-7-11-20(18)52(43,44)45;;;/h4-12,35H,34H2,1-3H3,(H,43,44,45)(H,46,47,48)(H,49,50,51)(H2,36,37,38,39,40);;;/q;3*+1/p-3",GWZGQKXBZOLBKS-UHFFFAOYSA-K,[Na+].[Na+].[Na+].Cc1c(Nc2nc(Cl)nc(Nc3ccccc3[S]([O-])(=O)=O)n2)c(C)c(c(C)c1Nc4cc(c(N)c5C(=O)c6ccccc6C(=O)c45)[S]([O-])(=O)=O)[S]([O-])(=O)=O,-0.4244279852,0.0,1,G1,882.1980000000001,-5.237039999999996,189.83109999999985,57.0,18.0,4.0,25.0,9.0,280.0,5.0,0.0,1.0,6.0,306.5199999999999,396.87949787811,2.90083009134172e-06,2850.792290516484
A-3842,4-fluoroaniline,"InChI=1S/C6H6FN/c7-5-1-3-6(8)4-2-5/h1-4H,8H2",KRZCOLNOCZKSDF-UHFFFAOYSA-N,Nc1ccc(F)cc1,-0.5272743845000001,0.0,1,G1,111.119,1.4079,30.8124,8.0,1.0,1.0,2.0,0.0,42.0,1.0,0.0,0.0,1.0,26.02,46.936829219435914,3.0324555320336755,147.38833891467198
A-3846,"hexasodium;(3~{Z})-5-[[4-morpholin-4-yl-6-[4-[(~{E})-2-[4-[[4-morpholin-4-yl-6-[[(7~{Z})-8-oxo-7-(phenylhydrazinylidene)-3,6-disulfonatonaphthalen-1-yl]amino]-1,3,5-triazin-2-yl]amino]-2-sulfonatophenyl]ethenyl]-3-sulfonatoanilino]-1,3,5-triazin-2-yl]amino]-4-oxo-3-(phenylhydrazinylidene)naphthalene-2,7-disulfonate","InChI=1S/C60H52N16O22S6.6Na/c77-53-49-35(27-47(103(91,92)93)51(53)73-71-37-7-3-1-4-8-37)25-41(99(79,80)81)31-43(49)63-57-65-55(67-59(69-57)75-17-21-97-22-18-75)61-39-15-13-33(45(29-39)101(85,86)87)11-12-34-14-16-40(30-46(34)102(88,89)90)62-56-66-58(70-60(68-56)76-19-23-98-24-20-76)64-44-32-42(100(82,83)84)26-36-28-48(104(94,95)96)52(54(78)50(36)44)74-72-38-9-5-2-6-10-38;;;;;;/h1-16,25-32,71-72H,17-24H2,(H,79,80,81)(H,82,83,84)(H,85,86,87)(H,88,89,90)(H,91,92,93)(H,94,95,96)(H2,61,63,65,67,69)(H2,62,64,66,68,70);;;;;;/q;6*+1/p-6/b12-11+,73-51+,74-52+;;;;;;",XGUYBIZUGAOMJN-NSVLGCOKSA-H,C1N(CCOC1)C2=NC(=NC(=N2)NC3=C4C(=O)/C(=N/NC5=CC=CC=C5)/C(=CC4=CC(=C3)S(=O)(=O)[O-])S(=O)(=O)[O-])NC6=CC(=C(C=C6)/C=C/C7=C(C=C(C=C7)NC8=NC(=NC(=N8)N9CCOCC9)NC1=C2C(=O)/C(=N/NC3=CC=CC=C3)/C(=CC2=CC(=C1)S(=O)(=O)[O-])S(=O)(=O)[O-])S(=O)(=O)[O-])S(=O)(=O)[O-].[Na+].[Na+].[Na+].[Na+].[Na+].[Na+],-1.144796153,0.0,1,G1,1673.4599999999998,-14.383999999999965,364.40640000000053,110.0,38.0,6.0,50.0,22.0,540.0,8.0,2.0,4.0,12.0,576.52,759.9778807059556,3.148803105431178e-06,5449.668544445633