ID,Name,InChI,InChIKey,SMILES,Solubility,SD,Ocurrences,Group,MolWt,MolLogP,MolMR,HeavyAtomCount,NumHAcceptors,NumHDonors,NumHeteroatoms,NumRotatableBonds,NumValenceElectrons,NumAromaticRings,NumSaturatedRings,NumAliphaticRings,RingCount,TPSA,LabuteASA,BalabanJ,BertzCT
A-402,2-methoxy-4-[(1E)-prop-1-en-1-yl]phenol,"InChI=1S/C10H12O2/c1-3-4-8-5-6-9(11)10(7-8)12-2/h3-7,11H,1-2H3/b4-3+",BJIOGJUNALELMI-ONEGZZNKSA-N,COc1cc(\C=C\C)ccc1O,-2.3647374971,0.0,1,G1,164.20399999999998,2.433900000000001,49.366800000000026,12.0,2.0,1.0,2.0,2.0,64.0,1.0,0.0,0.0,1.0,29.46,72.10934752660204,3.045828964705749,289.8900954855593
A-403,"3,4-dimethylbenzaldehyde","InChI=1S/C9H10O/c1-7-3-4-9(6-10)5-8(7)2/h3-6H,1-2H3",POQJHLBMLVTHAU-UHFFFAOYSA-N,Cc1ccc(C=O)cc1C,-2.277035079,0.0,1,G1,134.178,2.11594,41.303500000000014,10.0,1.0,0.0,1.0,1.0,52.0,1.0,0.0,0.0,1.0,17.07,60.687751562730554,3.158901732156222,250.90522086573947
A-405,"1-phenylethan-1-aminium hydrate hydrogen [(2R,3S)-3-methyloxiran-2-yl]phosphonate","InChI=1S/C8H11N.C3H7O4P.H2O/c1-7(9)8-5-3-2-4-6-8;1-2-3(7-2)8(4,5)6;/h2-7H,9H2,1H3;2-3H,1H3,(H2,4,5,6);1H2/t;2-,3+;/m.0./s1",XDXCFDPDYZSCAG-AFHMRPNKSA-N,O.CC([NH3+])c1ccccc1.C[C@@H]2O[C@@H]2[P](O)([O-])=O,-0.5941393378000001,0.0,1,G1,277.257,-0.5583,65.51920000000003,18.0,3.0,2.0,7.0,2.0,104.0,1.0,1.0,1.0,2.0,132.03,106.24171096715386,3.059999954636236e-07,391.6798625070107
A-407,"disodium 2-(2,4,5,7-tetraiodo-6-oxido-3-oxoxanthen-9-yl)benzoate","InChI=1S/C20H8I4O5.2Na/c21-11-5-9-13(7-3-1-2-4-8(7)20(27)28)10-6-12(22)17(26)15(24)19(10)29-18(9)14(23)16(11)25;;/h1-6,25H,(H,27,28);;/q;2*+1/p-2",IINNWAYUJNWZRM-UHFFFAOYSA-L,[Na+].[Na+].[O-]C(=O)c1ccccc1C2=C3C=C(I)C(=O)C(=C3Oc4c(I)c([O-])c(I)cc24)I,-1.0993150406999999,0.054572234699999944,2,G3,879.8590000000002,-1.571699999999999,139.1864999999999,31.0,5.0,0.0,11.0,2.0,146.0,2.0,0.0,2.0,4.0,93.4,275.16170331597954,1.7066658961336926e-06,1370.3932417950364
A-409,butyl acetate,"InChI=1S/C6H12O2/c1-3-4-5-8-6(2)7/h3-5H2,1-2H3",DKPFZGUDAPQIHT-UHFFFAOYSA-N,CCCCOC(C)=O,-1.2199585633,0.14820626641209425,6,G5,116.15999999999998,1.3496000000000001,31.540999999999983,8.0,2.0,0.0,2.0,3.0,48.0,0.0,0.0,0.0,0.0,26.3,49.83902892936324,2.822354554248032,68.92878689342031
A-410,"4,4'-diaminobiphenyl-2,2'-disulfonic acid","InChI=1S/C12H12N2O6S2/c13-7-1-3-9(11(5-7)21(15,16)17)10-4-2-8(14)6-12(10)22(18,19)20/h1-6H,13-14H2,(H,15,16,17)(H,18,19,20)",MBJAPGAZEWPEFB-UHFFFAOYSA-N,Nc1ccc(c2ccc(N)cc2[S](O)(=O)=O)c(c1)[S](O)(=O)=O,-2.6919272706,0.034092930899999985,2,G3,344.37,1.0114,80.33200000000002,22.0,6.0,4.0,10.0,3.0,118.0,2.0,0.0,0.0,2.0,160.78,126.42555073966766,2.9042918373144078,872.0769291820837
A-411,4-hydroxy-3-methoxy-5-nitrobenzaldehyde,"InChI=1S/C8H7NO5/c1-14-7-3-5(4-10)2-6(8(7)11)9(12)13/h2-4,11H,1H3",ZEHYRTJBFMZHCY-UHFFFAOYSA-N,COc1cc(C=O)cc(c1O)[N+]([O-])=O,-2.4496899299,0.0,1,G1,197.146,1.1214999999999997,46.70070000000001,14.0,5.0,1.0,6.0,3.0,74.0,1.0,0.0,0.0,1.0,89.66999999999999,78.88356415253662,3.4100123631135637,387.5631830986655
A-412,N-[3-(diethylamino)phenyl]acetamide,"InChI=1S/C12H18N2O/c1-4-14(5-2)12-8-6-7-11(9-12)13-10(3)15/h6-9H,4-5H2,1-3H3,(H,13,15)",FPUKYOSOAAPHTN-UHFFFAOYSA-N,CCN(CC)c1cccc(NC(C)=O)c1,-2.4693780306,0.0,1,G1,206.289,2.4912,64.30670000000003,15.0,2.0,1.0,3.0,4.0,82.0,1.0,0.0,0.0,1.0,32.34,91.0922737597318,2.856387015991843,332.1489335759843
A-415,plumbanone,InChI=1S/O.Pb,YEXPOXQUZXUXJW-UHFFFAOYSA-N,O=[Pb],-3.5023551324,0.0,1,G1,223.19899999999998,-0.49960000000000004,6.440499999999999,2.0,1.0,0.0,2.0,0.0,10.0,0.0,0.0,0.0,0.0,17.07,28.82298984976956,2.0,2.0
A-416,"1,3-bis(2-methylphenyl)guanidine","InChI=1S/C15H17N3/c1-11-7-3-5-9-13(11)17-15(16)18-14-10-6-4-8-12(14)2/h3-10H,1-2H3,(H3,16,17,18)",OPNUROKCUBTKLF-UHFFFAOYSA-N,Cc1ccccc1NC(N)=Nc2ccccc2C,-3.5338845835000003,0.0,1,G1,239.322,3.361740000000001,77.26310000000002,18.0,1.0,2.0,3.0,2.0,92.0,2.0,0.0,0.0,2.0,50.41,107.3683990352317,2.2046655351264843,573.4563266437718
A-420,"2-ethylpentyl 3-(3,5-ditert-butyl-4-hydroxyphenyl)propanoate","InChI=1S/C24H40O3/c1-9-11-17(10-2)16-27-21(25)13-12-18-14-19(23(3,4)5)22(26)20(15-18)24(6,7)8/h14-15,17,26H,9-13,16H2,1-8H3",PJZFNEYJOZUEGS-UHFFFAOYSA-N,CCCC(CC)COC(=O)CCc1cc(c(O)c(c1)C(C)(C)C)C(C)(C)C,-7.098737149600001,3.2702135328538904,4,G4,376.58100000000013,6.289300000000007,113.47580000000008,27.0,3.0,1.0,3.0,8.0,154.0,1.0,0.0,0.0,1.0,46.53,166.06966226038261,2.8975794352793756,582.4890607166549
A-421,Longifolene,"InChI=1S/C15H24/c1-10-11-6-7-12-13(11)14(2,3)8-5-9-15(10,12)4/h11-13H,1,5-9H2,2-4H3",PDSNLYSELAIEBU-UHFFFAOYSA-N,CC1(C)CCCC2(C)C3CCC(C13)C2=C,-4.412762427200001,0.0,1,G1,204.35699999999997,4.4150000000000045,64.58300000000004,15.0,0.0,0.0,0.0,0.0,84.0,0.0,3.0,3.0,3.0,0.0,94.14134413661013,2.097171261080974,311.99999999999994
A-422,2-phenylethyl 2-hydroxybenzoate,"InChI=1S/C15H14O3/c16-14-9-5-4-8-13(14)15(17)18-11-10-12-6-2-1-3-7-12/h1-9,16H,10-11H2",YNMSDIQQNIRGDP-UHFFFAOYSA-N,Oc1ccccc1C(=O)OCCc2ccccc2,-4.4891053349000005,0.0,1,G1,242.27399999999997,2.7917000000000014,68.53530000000003,18.0,3.0,1.0,3.0,4.0,92.0,2.0,0.0,0.0,2.0,46.53,105.6526247504975,1.878810272990811,520.2717401788738
A-425,"propane-1,2-diyl dibenzoate","InChI=1S/C17H16O4/c1-13(21-17(19)15-10-6-3-7-11-15)12-20-16(18)14-8-4-2-5-9-14/h2-11,13H,12H2,1H3",UMVMVEZHMZTUHD-UHFFFAOYSA-N,CC(COC(=O)c1ccccc1)OC(=O)c2ccccc2,-4.5673029377,0.0,1,G1,284.311,3.0889000000000015,78.04400000000004,21.0,4.0,0.0,4.0,5.0,108.0,2.0,0.0,0.0,2.0,52.6,122.86334255664535,1.8123485966934216,592.7018774454453
A-426,tricalcium diphosphate,"InChI=1S/3Ca.2H3O4P/c;;;2*1-5(2,3)4/h;;;2*(H3,1,2,3,4)/q3*+2;;/p-6",QORWJWZARLRLPR-UHFFFAOYSA-H,[Ca++].[Ca++].[Ca++].[O-][P]([O-])([O-])=O.[O-][P]([O-])([O-])=O,-4.6051146656,0.034462677799999675,2,G3,310.17400000000004,-6.791600000000001,32.475,13.0,8.0,0.0,13.0,0.0,64.0,0.0,0.0,0.0,0.0,172.5,163.59206791476097,-2.6666666506250002e-08,129.69862761618444
A-427,2-(2-methylbutan-2-yl)cyclohexyl acetate,"InChI=1S/C13H24O2/c1-5-13(3,4)11-8-6-7-9-12(11)15-10(2)14/h11-12H,5-9H2,1-4H3",YEVACTAGDANHRH-UHFFFAOYSA-N,CCC(C)(C)C1CCCCC1OC(C)=O,-4.4462039036,0.0,1,G1,212.33299999999997,3.544500000000003,61.58400000000005,15.0,2.0,0.0,2.0,3.0,88.0,0.0,1.0,1.0,1.0,26.3,93.38779257661028,2.6872718836096636,220.5758426329091
A-429,2-cyclohexylidene-2-phenylacetonitrile,"InChI=1S/C14H15N/c15-11-14(12-7-3-1-4-8-12)13-9-5-2-6-10-13/h1,3-4,7-8H,2,5-6,9-10H2",ZHOOOLQOWQVYOE-UHFFFAOYSA-N,N#C[C](=[C]1CC[CH2]CC1)c2ccccc2,-4.4200239973,0.0,1,G1,197.28100000000003,3.9278800000000027,62.06000000000004,15.0,1.0,0.0,1.0,1.0,76.0,1.0,1.0,1.0,2.0,23.79,91.0480855304251,2.3513329494561472,387.09691894256997
A-431,"2-{2-[(2,6-dichlorophenyl)amino]phenyl}acetic acid","InChI=1S/C14H11Cl2NO2/c15-10-5-3-6-11(16)14(10)17-12-7-2-1-4-9(12)8-13(18)19/h1-7,17H,8H2,(H,18,19)",DCOPUUMXTXDBNB-UHFFFAOYSA-N,OC(=O)Cc1ccccc1Nc2c(Cl)cccc2Cl,-4.6202577876,0.6763751080939164,5,G4,296.153,4.364100000000001,77.52650000000003,19.0,2.0,2.0,5.0,4.0,98.0,2.0,0.0,0.0,2.0,49.33,120.33053204396538,2.3558879442321037,593.8950014443018
A-432,"1,1'-ethane-1,2-diylbis(4-nitrobenzene)","InChI=1S/C14H12N2O4/c17-15(18)13-7-3-11(4-8-13)1-2-12-5-9-14(10-6-12)16(19)20/h3-10H,1-2H2",BSNKHEKTRWNNAC-UHFFFAOYSA-N,[O-][N+](=O)c1ccc(CCc2ccc(cc2)[N+]([O-])=O)cc1,-4.589885800199999,0.0,1,G1,272.26,3.2882000000000016,73.60080000000002,20.0,4.0,0.0,6.0,5.0,102.0,2.0,0.0,0.0,2.0,86.28,114.52433299935382,1.9738867162102545,563.1270925467024
A-433,"4-(2,4,4-trimethylpentan-2-yl)phenol","InChI=1S/C14H22O/c1-13(2,3)10-14(4,5)11-6-8-12(15)9-7-11/h6-9,15H,10H2,1-5H3",ISAVYTVYFVQUDY-UHFFFAOYSA-N,CC(C)(C)CC(C)(C)c1ccc(O)cc1,-4.4694622333,0.0,1,G1,206.329,4.106000000000003,65.20480000000005,15.0,1.0,1.0,1.0,2.0,84.0,1.0,0.0,0.0,1.0,20.23,93.14517378686585,2.9042644126592805,314.18709142485733
A-434,4-nonylphenol,"InChI=1S/C15H24O/c1-2-3-4-5-6-7-8-9-14-10-12-15(16)13-11-14/h10-13,16H,2-9H2,1H3",IGFHQQFPSIBGKE-UHFFFAOYSA-N,CCCCCCCCCc1ccc(O)cc1,-4.4980268403,0.0,1,G1,220.35600000000002,4.685300000000005,69.80380000000005,16.0,1.0,1.0,1.0,8.0,90.0,1.0,0.0,0.0,1.0,20.23,99.51011590126248,2.005636511455824,263.2683698322741
A-435,N-(4-carbamoylphenyl)-4-methoxy-3-nitrobenzamide,"InChI=1S/C15H13N3O5/c1-23-13-7-4-10(8-12(13)18(21)22)15(20)17-11-5-2-9(3-6-11)14(16)19/h2-8H,1H3,(H2,16,19)(H,17,20)",JXHSJUAPWJKPLE-UHFFFAOYSA-N,COc1ccc(cc1[N+]([O-])=O)C(=O)Nc2ccc(cc2)C(N)=O,-4.6536052692,0.0,1,G1,315.2850000000001,1.9545999999999997,82.56150000000002,23.0,5.0,2.0,8.0,5.0,118.0,2.0,0.0,0.0,2.0,124.56,130.56264170146582,2.2165875826358943,771.1818581972365
A-436,dimethyl(octadecyl)amine,"InChI=1S/C20H43N.ClH/c1-4-5-6-7-8-9-10-11-12-13-14-15-16-17-18-19-20-21(2)3;/h4-20H2,1-3H3;1H",PFKRTWCFCOUBHS-UHFFFAOYSA-N,[Cl-].CCCCCCCCCCCCCCCCCC[NH+](C)C,-4.6786900339,0.0,1,G1,334.03200000000004,2.3964000000000008,97.2237000000001,22.0,0.0,1.0,2.0,17.0,136.0,0.0,0.0,0.0,0.0,4.44,147.58607812411796,0.0,182.5460575077678
A-441,tetrabutylazanium bromide,"InChI=1S/C16H36N.BrH/c1-5-9-13-17(14-10-6-2,15-11-7-3)16-12-8-4;/h5-16H2,1-4H3;1H/q+1;/p-1",JRMUNVKIHCOMHV-UHFFFAOYSA-M,[Br-].CCCC[N+](CCCC)(CCCC)CCCC,1.3320248442,0.0,1,G1,322.37500000000006,2.007599999999999,79.36040000000008,18.0,0.0,0.0,2.0,12.0,112.0,0.0,0.0,0.0,0.0,0.0,126.69589001302487,0.0,121.66617507355792
A-444,cadmium dihydroxide,InChI=1S/Cd.2H2O/h;2*1H2/q+2;;/p-2,PLLZRTNVEXYBNA-UHFFFAOYSA-L,[OH-].[OH-].[Cd++],-3.3236333941000002,0.0,1,G1,146.42600000000002,-0.35609999999999997,3.8716,3.0,2.0,0.0,3.0,0.0,16.0,0.0,0.0,0.0,0.0,60.0,38.612536190294065,-0.0,2.7548875021634682
A-445,"(2R)-6-fluoro-2-[(2R)-oxiran-2-yl]-3,4-dihydro-2H-1-benzopyran; (2R)-6-fluoro-2-[(2S)-oxiran-2-yl]-3,4-dihydro-2H-1-benzopyran; (2S)-6-fluoro-2-[(2R)-oxiran-2-yl]-3,4-dihydro-2H-1-benzopyran; (2S)-6-fluoro-2-[(2S)-oxiran-2-yl]-3,4-dihydro-2H-1-benzopyran","InChI=1S/4C11H11FO2/c4*12-8-2-4-9-7(5-8)1-3-10(14-9)11-6-13-11/h4*2,4-5,10-11H,1,3,6H2/t2*10-,11+;2*10-,11-/m1010/s1",KCFGCDSNSLCBLY-IOLMCIFPSA-N,Fc1ccc2O[C@@H](CCc2c1)[C@@H]3CO3.Fc4ccc5O[C@@H](CCc5c4)[C@H]6CO6.Fc7ccc8O[C@H](CCc8c7)[C@@H]9CO9.Fc%10ccc%11O[C@H](CCc%11c%10)[C@H]%12CO%12,-3.0521011765,0.0,1,G1,776.82,7.672400000000009,195.50799999999938,56.0,8.0,0.0,12.0,4.0,296.0,4.0,4.0,8.0,12.0,87.04,322.44287570573493,9.75238086985336e-08,1727.2208241234673
A-447,"(2E)-3,7-dimethylocta-2,6-dien-1-ol","InChI=1S/C10H18O/c1-9(2)5-4-6-10(3)7-8-11/h5,7,11H,4,6,8H2,1-3H3/b10-7+",GLZPCOQZEFWAFX-JXMROGBWSA-N,CC(C)=CCC\C(C)=C\CO,-2.3519095035,0.41816205785000005,2,G3,154.253,2.6714000000000016,49.50780000000003,11.0,1.0,1.0,1.0,4.0,64.0,0.0,0.0,0.0,0.0,20.23,69.43875774522651,3.54438743137085,150.25571236699292
A-451,"1,2-dimethoxybenzene","InChI=1S/C8H10O2/c1-9-7-5-3-4-6-8(7)10-2/h3-6H,1-2H3",ABDKAPXRBAPSQN-UHFFFAOYSA-N,COc1ccccc1OC,-1.3149750669,0.0,1,G1,138.16599999999997,1.7038,39.546000000000014,10.0,2.0,0.0,2.0,2.0,54.0,1.0,0.0,0.0,1.0,18.46,60.38837780730394,2.964000093923802,185.1674941941729
A-452,"2-(4,5-diamino-1H-pyrazol-1-yl)ethan-1-ol; sulfuric acid","InChI=1S/C5H10N4O.H2O4S/c6-4-3-8-9(1-2-10)5(4)7;1-5(2,3)4/h3,10H,1-2,6-7H2;(H2,1,2,3,4)",IBCDZZHMNXXYAP-UHFFFAOYSA-N,Nc1cnn(CCO)c1N.O[S](O)(=O)=O,0.4442593444,0.0,1,G1,240.24099999999999,-1.612999999999999,52.315000000000005,15.0,7.0,5.0,10.0,2.0,88.0,1.0,0.0,0.0,1.0,164.68999999999997,85.88024074329637,3.359999894463337e-07,391.554929296163
A-453,"disodium benzene-1,3-disulfonate","InChI=1S/C6H6O6S2.2Na/c7-13(8,9)5-2-1-3-6(4-5)14(10,11)12;;/h1-4H,(H,7,8,9)(H,10,11,12);;/q;2*+1/p-2",XWPWZOJBTOJEGW-UHFFFAOYSA-L,[Na+].[Na+].[O-][S](=O)(=O)c1cccc(c1)[S]([O-])(=O)=O,0.3709472853,0.0,1,G1,282.206,-6.497199999999997,42.368400000000015,16.0,6.0,0.0,10.0,2.0,78.0,1.0,0.0,0.0,1.0,114.39999999999998,137.51547438500216,0.0,502.8864219421056
A-454,tris(2-butoxyethyl) phosphate,"InChI=1S/C18H39O7P/c1-4-7-10-20-13-16-23-26(19,24-17-14-21-11-8-5-2)25-18-15-22-12-9-6-3/h4-18H2,1-3H3",WTLBZVNBAKMVDP-UHFFFAOYSA-N,CCCCOCCO[P](=O)(OCCOCCCC)OCCOCCCC,-2.7785623319,0.10978116594999987,2,G3,398.47700000000026,4.594400000000005,102.64350000000009,26.0,7.0,0.0,8.0,21.0,158.0,0.0,0.0,0.0,0.0,72.45000000000002,159.1741490240883,4.044873528639152,281.11259441365513
A-457,1-methoxyhexane,"InChI=1S/C7H16O/c1-3-4-5-6-7-8-2/h3-7H2,1-2H3",ICBJCVRQDSQPGI-UHFFFAOYSA-N,CCCCCCOC,-2.2450853258000003,0.0,1,G1,116.204,2.2131,36.017999999999994,8.0,1.0,0.0,1.0,5.0,50.0,0.0,0.0,0.0,0.0,9.23,52.04244894371607,2.53006045688352,29.368065554250645
A-458,1-chloro-2-nitro-4-(trifluoromethyl)benzene,"InChI=1S/C7H3ClF3NO2/c8-5-2-1-4(7(9,10)11)3-6(5)12(13)14/h1-3H",TZGFQIXRVUHDLE-UHFFFAOYSA-N,[O-][N+](=O)c1cc(ccc1Cl)C(F)(F)F,-2.5337046723,0.0,1,G1,225.55299999999994,3.2670000000000003,43.1084,14.0,2.0,0.0,7.0,1.0,76.0,1.0,0.0,0.0,1.0,43.14,81.24919339205375,3.267886414704282,377.6879236408014
A-461,Betamethasone,"InChI=1S/C22H29FO5/c1-12-8-16-15-5-4-13-9-14(25)6-7-19(13,2)21(15,23)17(26)10-20(16,3)22(12,28)18(27)11-24/h6-7,9,12,15-17,24,26,28H,4-5,8,10-11H2,1-3H3/t12-,15-,16-,17-,19-,20-,21-,22-/m0/s1",UREBDLICKHMUKA-DVTGEIKXSA-N,C[C@H]1C[C@H]2[C@@H]3CCC4=CC(=O)C=C[C@]4(C)[C@@]3(F)[C@@H](O)C[C@]2(C)[C@@]1(O)C(=O)CO,-3.7709815002999996,0.0,1,G1,392.4670000000002,1.8957000000000002,99.94440000000004,28.0,5.0,3.0,6.0,2.0,154.0,0.0,3.0,4.0,4.0,94.83,163.87178561127467,1.83769187946728,804.7488254884713
A-463,3-(4-isopropylphenyl)-2-methylpropanal,"InChI=1S/C13H18O/c1-10(2)12-4-6-13(7-5-12)11(3)8-9-14/h4-7,9-11H,8H2,1-3H3",HQQPOVNESMNPNH-UHFFFAOYSA-N,CC(C)c1ccc(cc1)C(C)CC=O,-3.4598629013999997,0.0,1,G1,190.28599999999994,3.502500000000002,59.627000000000045,14.0,1.0,0.0,1.0,4.0,76.0,1.0,0.0,0.0,1.0,17.07,86.14752002031699,2.7685390517773505,284.60880203258404
A-465,"(2,4,6-trimethylcyclohex-3-en-1-yl)methanol","InChI=1S/C10H18O/c1-7-4-8(2)10(6-11)9(3)5-7/h4,8-11H,5-6H2,1-3H3",DMXUBGVVJLVCPB-UHFFFAOYSA-N,CC1CC(=CC(C)C1CO)C,-2.3711973931,0.0,1,G1,154.253,2.2171000000000003,47.27780000000003,11.0,1.0,1.0,1.0,1.0,64.0,0.0,0.0,1.0,1.0,20.23,69.12252962388153,2.6865640960769337,160.25571236699292
A-466,"3,7-dimethylnona-1,6-dien-3-ol","InChI=1S/C11H20O/c1-5-10(3)8-7-9-11(4,12)6-2/h6,8,12H,2,5,7,9H2,1,3-4H3/b10-8+",KRLBLPBPZSSIGH-CSKARUKUSA-N,CC/C(C)=C/CCC(C)(O)C=C,-2.4091286640000003,0.0,1,G1,168.27999999999997,3.0599000000000016,54.10280000000004,12.0,1.0,1.0,1.0,5.0,70.0,0.0,0.0,0.0,0.0,20.23,75.80369985962314,3.765107581306722,165.84292599913812
A-467,"tris(oxiran-2-ylmethyl) benzene-1,2,4-tricarboxylate","InChI=1S/C18H18O9/c19-16(25-7-11-4-22-11)10-1-2-14(17(20)26-8-12-5-23-12)15(3-10)18(21)27-9-13-6-24-13/h1-3,11-13H,4-9H2",YNOWBNNLZSSIHM-UHFFFAOYSA-N,O=C(OCC1CO1)c2ccc(C(=O)OCC3CO3)c(c2)C(=O)OCC4CO4,-2.7622964758,0.0,1,G1,378.33300000000014,0.3533999999999997,86.50950000000005,27.0,9.0,0.0,9.0,9.0,144.0,1.0,3.0,3.0,4.0,116.49,153.95905270884117,1.484111837921581,747.1992350663913
A-468,"2,4-dimethyl-4-phenyltetrahydrofuran","InChI=1S/C12H16O/c1-10-8-12(2,9-13-10)11-6-4-3-5-7-11/h3-7,10H,8-9H2,1-2H3",GPMLJOOQCIHFET-UHFFFAOYSA-N,CC1CC(C)(CO1)c2ccccc2,-2.4332379452,0.0,1,G1,176.25900000000001,2.7531000000000008,53.82500000000004,13.0,1.0,0.0,1.0,1.0,70.0,1.0,1.0,1.0,2.0,9.23,79.72876988185428,2.2576398223804985,280.4357677572863
A-469,ethyl 2-ethylhexanoate,"InChI=1S/C10H20O2/c1-4-7-8-9(5-2)10(11)12-6-3/h9H,4-8H2,1-3H3",YXAGIRHBJJLWHW-UHFFFAOYSA-N,CCCCC(CC)C(=O)OCC,-3.423291255,0.0,1,G1,172.26799999999997,2.765900000000001,49.93900000000003,12.0,2.0,0.0,2.0,6.0,72.0,0.0,0.0,0.0,0.0,26.3,75.29879738694964,3.706707862118944,121.00698692803581
A-470,quinolin-8-ol,"InChI=1S/C9H7NO/c11-8-5-1-3-7-4-2-6-10-9(7)8/h1-6,11H",MCJGNVYPOGVAJF-UHFFFAOYSA-N,Oc1cccc2cccnc12,-2.3496052546,0.04084016068839196,3,G5,145.16099999999997,1.9403999999999995,43.407800000000016,11.0,2.0,1.0,2.0,0.0,54.0,2.0,0.0,0.0,2.0,33.120000000000005,64.1269493843747,2.9131611636048604,378.7244463345713
A-471,"trisodium (3Z)-7-({4-chloro-6-[ethyl({3-[2-(sulfonatooxy)ethanesulfonyl]phenyl})amino]-1,3,5-triazin-2-yl}amino)-3-[2-(4-methoxy-2-sulfonatophenyl)hydrazin-1-ylidene]-4-oxo-3,4-dihydronaphthalene-2-sulfonate","InChI=1S/C30H28ClN7O14S4.3Na/c1-3-38(19-5-4-6-21(15-19)53(40,41)12-11-52-56(48,49)50)30-34-28(31)33-29(35-30)32-18-7-9-22-17(13-18)14-25(55(45,46)47)26(27(22)39)37-36-23-10-8-20(51-2)16-24(23)54(42,43)44;;;/h4-10,13-16,36H,3,11-12H2,1-2H3,(H,42,43,44)(H,45,46,47)(H,48,49,50)(H,32,33,34,35);;;/q;3*+1/p-3/b37-26-;;;",FTXPZBYCIGOUHZ-WPJWCKLJSA-K,[Na+].[Na+].[Na+].CCN(c1cccc(c1)[S](=O)(=O)CCO[S]([O-])(=O)=O)c2nc(Cl)nc(Nc3ccc4C(=O)C(=N/Nc5ccc(OC)cc5[S]([O-])(=O)=O)\C(=Cc4c3)[S]([O-])(=O)=O)n2,-1.1616711076000001,0.14266750360000002,2,G3,940.2560000000002,-6.847700000000019,195.40529999999978,59.0,21.0,2.0,29.0,15.0,298.0,4.0,0.0,1.0,5.0,319.59999999999997,409.2280790099406,3.999994212768016e-06,2764.9409143013395
A-472,zinc dihydroxide,InChI=1S/2H2O.Zn/h2*1H2;/q;;+2/p-2,UGZADUVQMDAIAO-UHFFFAOYSA-L,[OH-].[OH-].[Zn++],-2.1858288548,0.0,1,G1,99.404,-0.35609999999999997,3.8716,3.0,2.0,0.0,3.0,0.0,16.0,0.0,0.0,0.0,0.0,60.0,31.213312659297312,-0.0,2.7548875021634682
A-475,"1,2-diethoxybenzene","InChI=1S/C10H14O2/c1-3-11-9-7-5-6-8-10(9)12-4-2/h5-8H,3-4H2,1-2H3",QZYDOKBVZJLQCK-UHFFFAOYSA-N,CCOc1ccccc1OCC,-2.41045076,0.0,1,G1,166.21999999999994,2.484000000000001,48.78000000000003,12.0,2.0,0.0,2.0,4.0,66.0,1.0,0.0,0.0,1.0,18.46,73.11826203609715,2.765009423656173,208.03511805929523
A-476,(2E)-but-2-ene,"InChI=1S/C4H8/c1-3-4-2/h3-4H,1-2H3/b4-3+",IAQRGUVFOMOMEM-ONEGZZNKSA-N,C\C=C\C,-1.9394650737,0.050567463149999936,2,G3,56.108000000000004,1.5824,20.487999999999996,4.0,0.0,0.0,0.0,0.0,24.0,0.0,0.0,0.0,0.0,0.0,27.144474338835117,2.549193338482967,15.219280948873624
A-477,D-erythro-pentitol,"InChI=1S/C5H12O5/c6-1-3(8)5(10)4(9)2-7/h3-10H,1-2H2",HEBKCHPVOIAQTA-UHFFFAOYSA-N,OCC(O)C(O)C(O)CO,0.6252744890999999,0.0,1,G1,152.146,-2.9463000000000004,32.191999999999986,10.0,5.0,5.0,5.0,4.0,62.0,0.0,0.0,0.0,0.0,101.15,58.17018824639602,3.685406534013343,76.10749561002055
A-478,"2-methylbuta-1,3-diene","InChI=1S/C5H8/c1-4-5(2)3/h4H,1-2H2,3H3",RRHGJUQNOFWUDK-UHFFFAOYSA-N,CC(=C)C=C,-2.0257332356999997,0.0,1,G1,68.11900000000001,1.7485,25.01099999999999,5.0,0.0,0.0,0.0,1.0,28.0,0.0,0.0,0.0,0.0,0.0,32.81981342104747,3.204805417886435,51.058650025961626
A-481,"(Z)-N-(3-aminopropyl)-N'-[3-(9-octadecenylamino)propyl]propane-1,3-diamine","InChI=1S/C27H58N4/c1-2-3-4-5-6-7-8-9-10-11-12-13-14-15-16-17-22-29-24-19-26-31-27-20-25-30-23-18-21-28/h9-10,29-31H,2-8,11-28H2,1H3/b10-9+",XWNMFDCGCAFWHB-MDZDMXLPSA-N,CCCCCCCC/C=C/CCCCCCCCNCCCNCCCNCCCN,-3.8360757576999998,0.0,1,G1,438.78900000000027,5.921700000000004,140.96650000000002,31.0,4.0,4.0,4.0,27.0,186.0,0.0,0.0,0.0,0.0,62.11,195.52762021779398,3.0388102540216964,333.19812306357943
A-482,"3,7-dimethyloctan-1-ol","InChI=1S/C10H22O/c1-9(2)5-4-6-10(3)7-8-11/h9-11H,4-8H2,1-3H3",PRNCMAKCNVRZFX-UHFFFAOYSA-N,CC(C)CCCC(C)CCO,-3.3932597866000003,0.0,1,G1,158.285,2.831200000000002,49.555800000000026,11.0,1.0,1.0,1.0,6.0,68.0,0.0,0.0,0.0,0.0,20.23,70.81796380959504,3.099620830487698,78.9419624661572
A-483,"disodium {1-ethyl-5-[(E)-2-(4-{4-[(E)-2-[1-ethyl-2-hydroxy-4-methyl-6-oxo-5-(sulfonatomethyl)-1,6-dihydropyridin-3-yl]diazen-1-yl]benzenesulfonyl}phenyl)diazen-1-yl]-6-hydroxy-4-methyl-2-oxo-1,2-dihydropyridin-3-yl}methanesulfonate","InChI=1S/C30H32N6O12S3.2Na/c1-5-35-27(37)23(15-49(41,42)43)17(3)25(29(35)39)33-31-19-7-11-21(12-8-19)51(47,48)22-13-9-20(10-14-22)32-34-26-18(4)24(16-50(44,45)46)28(38)36(6-2)30(26)40;;/h7-14,39-40H,5-6,15-16H2,1-4H3,(H,41,42,43)(H,44,45,46);;/q;2*+1/p-2",CMXLXDYHEIIMLD-UHFFFAOYSA-L,[Na+].[Na+].CCN1C(=C(N=Nc2ccc(cc2)[S](=O)(=O)c3ccc(cc3)N=NC4=C(O)N(CC)C(=O)C(=C4C)C[S]([O-])(=O)=O)C(=C(C[S]([O-])(=O)=O)C1=O)C)O,-2.1021873796,0.0,1,G1,808.7810000000003,-2.160159999999992,179.04579999999967,53.0,18.0,2.0,23.0,12.0,272.0,4.0,0.0,0.0,4.0,282.44,347.895998628695,4.859990872442689e-06,2366.92136750917