ID,Name,InChI,InChIKey,SMILES,Solubility,SD,Ocurrences,Group,MolWt,MolLogP,MolMR,HeavyAtomCount,NumHAcceptors,NumHDonors,NumHeteroatoms,NumRotatableBonds,NumValenceElectrons,NumAromaticRings,NumSaturatedRings,NumAliphaticRings,RingCount,TPSA,LabuteASA,BalabanJ,BertzCT
A-2273,"3-[(E)-4-[[5,6-di(phenyl)-1,2,4-triazin-3-yl]sulfanyl]but-2-enyl]sulfanyl-5,6-di(phenyl)-1,2,4-triazine","InChI=1S/C34H26N6S2/c1-5-15-25(16-6-1)29-31(27-19-9-3-10-20-27)37-39-33(35-29)41-23-13-14-24-42-34-36-30(26-17-7-2-8-18-26)32(38-40-34)28-21-11-4-12-22-28/h1-22H,23-24H2/b14-13+",IBPFDTBQAMYTIU-BUHFOSPRSA-N,C(Sc1nnc(c2ccccc2)c(n1)c3ccccc3)\C=C\CSc4nnc(c5ccccc5)c(n4)c6ccccc6,-7.025125554700001,0.0,1,G1,582.7580000000003,8.165200000000006,171.98599999999962,42.0,8.0,0.0,8.0,10.0,204.0,6.0,0.0,0.0,6.0,77.34,252.98805464843818,1.1189855482796225,1634.4898400122488
A-2274,"1-(4-tert-butylphenyl)-3-(4-methoxyphenyl)propane-1,3-dione","InChI=1S/C20H22O3/c1-20(2,3)16-9-5-14(6-10-16)18(21)13-19(22)15-7-11-17(23-4)12-8-15/h5-12H,13H2,1-4H3",XNEFYCZVKIDDMS-UHFFFAOYSA-N,COc1ccc(cc1)C(=O)CC(=O)c2ccc(cc2)C(C)(C)C,-7.060548154299999,0.0,1,G1,310.39300000000003,4.448400000000004,91.41400000000006,23.0,3.0,0.0,3.0,5.0,120.0,2.0,0.0,0.0,2.0,43.370000000000005,136.8446236703283,2.0687244031316134,689.1617995042972
A-2277,"2,2,4,6,6-pentamethyl-3,5-dioxa-2,4,6-trisilaheptane","InChI=1S/C7H21O2Si3/c1-10(8-11(2,3)4)9-12(5,6)7/h1-7H3",SWGZAKPJNWCPRY-UHFFFAOYSA-N,C[Si](O[Si](C)(C)C)O[Si](C)(C)C,-7.0443456956,0.0,1,G1,221.50099999999995,2.8074000000000012,60.48000000000004,12.0,2.0,0.0,5.0,4.0,73.0,0.0,0.0,0.0,0.0,18.46,80.3889446437905,3.830355464089918,120.56736464594485
A-2282,"5-hydroxy-2-(3-hydroxy-4-methoxyphenyl)-7-{[(2S,3R,4S,5S,6R)-3,4,5-trihydroxy-6-({[(2R,3R,4R,5R,6S)-3,4,5-trihydroxy-6-methyloxan-2-yl]oxy}methyl)oxan-2-yl]oxy}-4H-chromen-4-one","InChI=1S/C28H32O15/c1-10-21(32)23(34)25(36)27(40-10)39-9-19-22(33)24(35)26(37)28(43-19)41-12-6-14(30)20-15(31)8-17(42-18(20)7-12)11-3-4-16(38-2)13(29)5-11/h3-8,10,19,21-30,32-37H,9H2,1-2H3/t10-,19+,21-,22+,23+,24-,25+,26+,27+,28+/m0/s1",GZSOSUNBTXMUFQ-YFAPSIMESA-N,COc1ccc(cc1O)C2=CC(=O)c3c(O)cc(O[C@@H]4O[C@H](CO[C@@H]5O[C@@H](C)[C@H](O)[C@@H](O)[C@H]5O)[C@@H](O)[C@H](O)[C@H]4O)cc3O2,-7.505541952200001,0.0,1,G1,608.5490000000003,-1.0897000000000006,143.4184,43.0,15.0,8.0,15.0,7.0,234.0,3.0,2.0,2.0,5.0,238.2,242.7906821265489,1.3618119207500035,1507.492076090512
A-2283,"1,3,5-tris[[(2R)-oxiran-2-yl]methyl]-1,3,5-triazinane-2,4,6-trione","InChI=1S/C12H15N3O6/c16-10-13(1-7-4-19-7)11(17)15(3-9-6-21-9)12(18)14(10)2-8-5-20-8/h7-9H,1-6H2/t7-,8-,9-/m1/s1",OUPZKGBUJRBPGC-IWSPIJDZSA-N,O=C1N(C[C@@H]2CO2)C(=O)N(C[C@@H]3CO3)C(=O)N1C[C@@H]4CO4,-2.4688253265,0.0,1,G1,297.267,-2.6318999999999972,68.44200000000002,21.0,9.0,0.0,9.0,6.0,114.0,1.0,3.0,3.0,4.0,103.59,117.81244907975622,1.8082493753899793,604.5390164761754
A-2284,"4,11-diamino-2-(3-methoxypropyl)-1H,2H,3H,5H,10H-naphtho[2,3-f]isoindole-1,3,5,10-tetrone","InChI=1S/C20H17N3O5/c1-28-8-4-7-23-19(26)13-14(20(23)27)16(22)12-11(15(13)21)17(24)9-5-2-3-6-10(9)18(12)25/h2-3,5-6H,4,7-8,21-22H2,1H3",WBCXRDHKXHADQF-UHFFFAOYSA-N,COCCCN1C(=O)c2c(N)c3C(=O)c4ccccc4C(=O)c3c(N)c2C1=O,-7.323792769,0.4286662482000003,2,G3,379.3720000000002,0.4649999999999996,109.71980000000006,28.0,8.0,2.0,8.0,4.0,142.0,4.0,0.0,0.0,4.0,134.48,156.79471210360603,2.2475277234697733,1370.536182552026
A-2287,docosanoic acid,"InChI=1S/C22H44O2/c1-2-3-4-5-6-7-8-9-10-11-12-13-14-15-16-17-18-19-20-21-22(23)24/h2-21H2,1H3,(H,23,24)",UKMSUNONTOPOIO-UHFFFAOYSA-N,CCCCCCCCCCCCCCCCCCCCCC(O)=O,-7.3281144602,1.74742501085,2,G2,340.59200000000004,7.892900000000008,105.6498000000001,24.0,1.0,1.0,2.0,20.0,144.0,0.0,0.0,0.0,0.0,37.3,151.35879128239813,2.9653789386426435,250.35446975062405
A-2288,3-phenylpropyl benzoate,"InChI=1S/C16H16O2/c17-16(15-11-5-2-6-12-15)18-13-7-10-14-8-3-1-4-9-14/h1-6,8-9,11-12H,7,10,13H2",ONPVMQLRVWKFFL-UHFFFAOYSA-N,O=C(OCCCc1ccccc1)c2ccccc2,-4.8009737888,0.0,1,G1,240.30200000000002,3.476200000000002,71.48750000000004,18.0,2.0,0.0,2.0,5.0,92.0,2.0,0.0,0.0,2.0,26.3,107.2233331126981,1.7154979320476862,476.9648515208871
A-2289,2-methylheptan-1-ol,"InChI=1S/C8H18O/c1-3-4-5-6-8(2)7-9/h8-9H,3-7H2,1-2H3",QZESEQBMSFFHRY-UHFFFAOYSA-N,CCCCCC(C)CO,-2.5281270707,0.0,1,G1,130.231,2.1951000000000005,40.3918,9.0,1.0,1.0,1.0,5.0,56.0,0.0,0.0,0.0,0.0,20.23,58.088079580801804,2.8766225950797444,52.52932501298081
A-2292,palladium (II) di(4-oxopent-2-en-2-oate),"InChI=1S/2C5H7O2.Pd/c2*1-4(6)3-5(2)7;/h2*3H,1-2H3;/q2*-1;+2",PLYDYQGKZLDFTI-UHFFFAOYSA-N,[Pd++].CC(=O)[CH-]C(C)=O.CC(=O)[CH-]C(C)=O,-7.438461096699999,0.0,1,G1,304.63800000000003,0.7348799999999998,51.32400000000003,15.0,4.0,0.0,5.0,4.0,88.0,0.0,0.0,0.0,0.0,68.28,103.45491589617484,-1.7999999750625003e-07,195.80694332859096
A-2293,"3,4,9,10-Perylenetetracarboxylic diimide","InChI=1S/C24H10N2O4/c27-21-13-5-1-9-10-2-6-15-20-16(24(30)26-23(15)29)8-4-12(18(10)20)11-3-7-14(22(28)25-21)19(13)17(9)11/h1-8H,(H,25,27,28)(H,26,29,30)",KJOLVZJFMDVPGB-UHFFFAOYSA-N,O=C1NC(=O)c2ccc3c4ccc5C(=O)NC(=O)c6ccc(c7ccc1c2c37)c4c56,-7.591458633999999,0.0,1,G1,390.35400000000016,3.0162000000000013,118.81740000000002,30.0,4.0,2.0,6.0,0.0,140.0,7.0,0.0,0.0,7.0,99.85999999999999,164.5648244322474,1.9470579005489246,1796.5553620600522
A-2294,"1-hydroxy-4-[(4-methylphenyl)amino]-9,10-dihydroanthracene-9,10-dione","InChI=1S/C21H15NO3/c1-12-6-8-13(9-7-12)22-16-10-11-17(23)19-18(16)20(24)14-4-2-3-5-15(14)21(19)25/h2-11,22-23H,1H3",LJFWQNJLLOFIJK-UHFFFAOYSA-N,Cc1ccc(Nc2ccc(O)c3C(=O)c4ccccc4C(=O)c23)cc1,-7.5491813124,0.0,1,G1,329.3550000000001,4.219620000000003,95.87550000000003,25.0,4.0,2.0,4.0,2.0,122.0,3.0,0.0,1.0,4.0,66.4,144.30172685717721,1.8805845311359677,1019.8111975374047
A-2295,oxygen(-2) anion; zirconium(+4) cation; sulfate,"InChI=1S/H2O4S.O.Zr/c1-5(2,3)4;;/h(H2,1,2,3,4);;/q;-2;+4/p-2",QRTRRDMHGTZPBF-UHFFFAOYSA-L,[O--].[Zr+4].[O-][S]([O-])(=O)=O,-7.7060474790999995,0.0,1,G1,203.28599999999997,-1.4592999999999998,11.161100000000001,7.0,4.0,0.0,7.0,0.0,40.0,0.0,0.0,0.0,0.0,108.75999999999999,59.735193570732825,-7.999999835000003e-08,91.24856184822198
A-2297,"2-ethyl-2-[2-(6-methoxy-3,4-dihydro-2H-naphthalen-1-ylidene)ethyl]cyclopentane-1,3-dione","InChI=1S/C20H24O3/c1-3-20(18(21)9-10-19(20)22)12-11-14-5-4-6-15-13-16(23-2)7-8-17(14)15/h7-8,11,13H,3-6,9-10,12H2,1-2H3/b14-11+",OMXFYKCGCDGYNC-SDNWHVSQSA-N,CCC1(C\C=C2/CCCc3cc(OC)ccc23)C(=O)CCC1=O,-4.172504242,0.0,1,G1,312.4090000000001,4.1334000000000035,90.49800000000006,23.0,3.0,0.0,3.0,4.0,122.0,1.0,1.0,2.0,3.0,43.370000000000005,137.2759168114012,1.898753623524068,653.4644011582036
A-2298,octadecane,"InChI=1S/C18H38/c1-3-5-7-9-11-13-15-17-18-16-14-12-10-8-6-4-2/h3-18H2,1-2H3",RZJRJXONCZWCBN-UHFFFAOYSA-N,CCCCCCCCCCCCCCCCCC,-7.6275399492,0.0,1,G1,254.5019999999999,7.267800000000007,85.22000000000008,18.0,0.0,0.0,0.0,15.0,110.0,0.0,0.0,0.0,0.0,0.0,116.94326697257192,2.862306209193584,112.0
A-2299,"8,8-dimethyl-7-propan-2-yl-6,10-dioxaspiro[4.5]decane","InChI=1S/C13H24O2/c1-10(2)11-12(3,4)9-14-13(15-11)7-5-6-8-13/h10-11H,5-9H2,1-4H3",NKDJGNROVOPIGT-UHFFFAOYSA-N,CC(C)C1OC2(CCCC2)OCC1(C)C,-3.5242437705,0.0,1,G1,212.33299999999997,3.354300000000002,60.64300000000005,15.0,2.0,0.0,2.0,1.0,88.0,0.0,2.0,2.0,2.0,18.46,93.33398455254415,2.1208837104490783,226.69045208702977
A-2301,"2-ethylhexyl 4-({bis[(4-{[(2-ethylhexyl)oxy]carbonyl}phenyl)amino]-1,3,5-triazin-2-yl}amino)benzoate","InChI=1S/C48H66N6O6/c1-7-13-16-34(10-4)31-58-43(55)37-19-25-40(26-20-37)49-46-52-47(50-41-27-21-38(22-28-41)44(56)59-32-35(11-5)17-14-8-2)54-48(53-46)51-42-29-23-39(24-30-42)45(57)60-33-36(12-6)18-15-9-3/h19-30,34-36H,7-18,31-33H2,1-6H3,(H3,49,50,51,52,53,54)",JGUMTYWKIBJSTN-UHFFFAOYSA-N,CCCCC(CC)COC(=O)c1ccc(Nc2nc(Nc3ccc(cc3)C(=O)OCC(CC)CCCC)nc(Nc4ccc(cc4)C(=O)OCC(CC)CCCC)n2)cc1,-8.2164783763,0.3823215958508873,4,G5,823.0919999999999,12.221999999999984,239.76659999999913,60.0,12.0,3.0,12.0,27.0,324.0,4.0,0.0,0.0,4.0,153.65999999999997,356.58985530871286,1.485749355584545,1657.3090105606504
A-2304,methyl palmitate,"InChI=1S/C17H34O2/c1-3-4-5-6-7-8-9-10-11-12-13-14-15-16-17(18)19-2/h3-16H2,1-2H3",FLIACVVOZYBSBS-UHFFFAOYSA-N,CCCCCCCCCCCCCCCC(=O)OC,-7.8300382351,0.0,1,G1,270.45699999999994,5.640700000000005,82.32800000000007,19.0,2.0,0.0,2.0,14.0,114.0,0.0,0.0,0.0,0.0,26.3,119.85339218772596,2.969254449003075,189.7010862108803
A-2307,"Bis(2-hydroxyethyl) 2-[(6-oxobenzo[c][2,1]benzoxaphosphinin-6-yl)methyl]butanedioate","InChI=1S/C21H23O8P/c22-9-11-27-20(24)13-15(21(25)28-12-10-23)14-30(26)19-8-4-2-6-17(19)16-5-1-3-7-18(16)29-30/h1-8,15,22-23H,9-14H2",MJOBQUIJUFKMPR-UHFFFAOYSA-N,OCCOC(=O)CC(C[P]1(=O)Oc2ccccc2c3ccccc13)C(=O)OCCO,-4.4617795617,0.0,1,G1,434.3810000000002,1.7266999999999992,108.81010000000003,30.0,8.0,2.0,9.0,9.0,160.0,2.0,0.0,1.0,3.0,119.36000000000001,173.39556275282206,1.9147604397585496,957.5274785065669
A-2308,"2,2-dimethyl-1,3-dihydroperimidine","InChI=1S/C13H14N2/c1-13(2)14-10-7-3-5-9-6-4-8-11(15-13)12(9)10/h3-8,14-15H,1-2H3",DETLTZYXZWIXIB-UHFFFAOYSA-N,CC1(C)Nc2cccc3cccc(N1)c23,-2.9298988951,0.0,1,G1,198.269,3.4133000000000013,65.27240000000003,15.0,2.0,2.0,2.0,0.0,76.0,2.0,0.0,1.0,3.0,24.06,89.30178720810885,2.362182776100162,486.29703304949766
A-2309,potassium 16-methylheptadecanoate,"InChI=1S/C18H36O2.K/c1-17(2)15-13-11-9-7-5-3-4-6-8-10-12-14-16-18(19)20;/h17H,3-16H2,1-2H3,(H,19,20);/q;+1/p-1",NGNZTXNWCGRXKL-UHFFFAOYSA-M,[K+].CC(C)CCCCCCCCCCCCCCC([O-])=O,-8.1469015236,3.8701451360749384,3,G4,322.574,1.8576999999999986,84.48300000000008,21.0,2.0,0.0,3.0,15.0,120.0,0.0,0.0,0.0,0.0,40.129999999999995,174.82158752017426,0.0,217.26386583101493
A-2312,2-[(4-{[2-(4-cyclohexylphenoxy)ethyl](ethyl)amino}-2-methylphenyl)methylidene]propanedinitrile,"InChI=1S/C27H31N3O/c1-3-30(26-12-9-25(21(2)17-26)18-22(19-28)20-29)15-16-31-27-13-10-24(11-14-27)23-7-5-4-6-8-23/h9-14,17-18,23H,3-8,15-16H2,1-2H3",NQAJBKZEQYYFGK-UHFFFAOYSA-N,CCN(CCOc1ccc(cc1)C2CCCCC2)c3ccc(C=C(C#N)C#N)c(C)c3,-8.3860948559,0.3090453912694317,3,G5,413.5650000000001,6.378580000000007,126.03200000000007,31.0,4.0,0.0,4.0,8.0,160.0,2.0,1.0,1.0,3.0,60.05,185.92573311844438,1.5659081484278023,957.0216308894231
A-2313,"2,4-ditert-butyl-6-(3,5-ditert-butyl-2-hydroxyphenyl)phenol","InChI=1S/C28H42O2/c1-25(2,3)17-13-19(23(29)21(15-17)27(7,8)9)20-14-18(26(4,5)6)16-22(24(20)30)28(10,11)12/h13-16,29-30H,1-12H3",GDGDLBOVIAWEAD-UHFFFAOYSA-N,CC(C)(C)c1cc(c(O)c(c1)C(C)(C)C)c2cc(cc(c2O)C(C)(C)C)C(C)(C)C,-6.889187496900001,0.8621379347999993,2,G2,410.6420000000002,7.954800000000009,130.00760000000005,30.0,2.0,2.0,2.0,1.0,166.0,2.0,0.0,0.0,2.0,40.46,183.91603866029877,3.0271210353001483,857.5506636140519
A-2317,1-[(E)-2-(2-methoxyphenyl)diazen-1-yl]naphthalen-2-ol,"InChI=1S/C17H14N2O2/c1-21-16-9-5-4-8-14(16)18-19-17-13-7-3-2-6-12(13)10-11-15(17)20/h2-11,18H,1H3/b19-17-",BBBYRJLYBLPEBL-ZPHPHTNESA-N,COc1ccccc1N\N=C2/C(=O)C=Cc3ccccc23,-8.9260164319,0.0,1,G1,278.311,3.1073000000000013,83.63670000000003,21.0,4.0,1.0,4.0,3.0,104.0,2.0,0.0,1.0,3.0,50.69,122.30816173108435,1.9595082253169287,747.9602572258564
A-2318,methyl octadecanoate,"InChI=1S/C19H38O2/c1-3-4-5-6-7-8-9-10-11-12-13-14-15-16-17-18-19(20)21-2/h3-18H2,1-2H3",HPEUJPJOZXNMSJ-UHFFFAOYSA-N,CCCCCCCCCCCCCCCCCC(=O)OC,-8.9978390846,0.0,1,G1,298.51099999999997,6.420900000000007,91.56200000000008,21.0,2.0,0.0,2.0,16.0,126.0,0.0,0.0,0.0,0.0,26.3,132.5832764165192,2.9775135900228027,213.61189310154845
A-2319,"1,2-Benzenedicarboxylic acid, di-C9-11-branched alkyl esters, C10-rich","InChI=1S/C28H46O4/c1-23(2)17-11-7-5-9-15-21-31-27(29)25-19-13-14-20-26(25)28(30)32-22-16-10-6-8-12-18-24(3)4/h13-14,19-20,23-24H,5-12,15-18,21-22H2,1-4H3",ZVFDTKUVRCTHQE-UHFFFAOYSA-N,CC(C)CCCCCCCOC(=O)c1ccccc1C(=O)OCCCCCCCC(C)C,-9.4195398078,0.0,1,G1,446.6720000000004,7.993400000000009,132.08700000000005,32.0,4.0,0.0,4.0,18.0,182.0,1.0,0.0,0.0,1.0,52.60000000000001,196.01026429532374,2.264773913876615,581.0744728730804
A-2320,divanadium pentaoxide,InChI=1S/5O.2V,GNTDGMZSJNCJKK-UHFFFAOYSA-N,O=[V](=O)O[V](=O)=O,-2.3036141272,0.0,1,G1,181.879,-0.5486,3.8310000000000004,7.0,5.0,0.0,7.0,2.0,40.0,0.0,0.0,0.0,0.0,77.51,48.380953822684404,3.773284860851449,134.51917573667436
A-2321,"Propylidynetrimethanol, ethoxylated, esters with acrylic acid","InChI=1S/C21H32O9/c1-5-18(22)28-12-9-25-15-21(8-4,16-26-10-13-29-19(23)6-2)17-27-11-14-30-20(24)7-3/h5-7H,1-3,8-17H2,4H3",MTPIZGPBYCHTGQ-UHFFFAOYSA-N,CCC(COCCOC(=O)C=C)(COCCOC(=O)C=C)COCCOC(=O)C=C,-2.687445856,0.9124473269500001,2,G2,428.4780000000003,1.6202,108.64900000000007,30.0,9.0,0.0,9.0,19.0,170.0,0.0,0.0,0.0,0.0,106.59,177.13512189638158,4.515298451648146,482.60209166559576
A-2322,4-[(4-hydroxyphenyl)(pyridin-2-yl)methyl]phenol,"InChI=1S/C18H15NO2/c20-15-8-4-13(5-9-15)18(17-3-1-2-12-19-17)14-6-10-16(21)11-7-14/h1-12,18,20-21H",LJROKJGQSPMTKB-UHFFFAOYSA-N,Oc1ccc(cc1)C(c2ccc(O)cc2)c3ccccn3,-4.523907797200001,0.0,1,G1,277.32300000000004,3.6730000000000027,81.39560000000003,21.0,3.0,2.0,3.0,3.0,104.0,3.0,0.0,0.0,3.0,53.35,122.71864913136018,2.1061486300089007,660.9668514556635
A-2324,oxygen(-2) anion; vanadium; pentahydroxide; pentaphosphate,"InChI=1S/5H3O4P.5H2O.5O.6V/c5*1-5(2,3)4;;;;;;;;;;;;;;;;/h5*(H3,1,2,3,4);5*1H2;;;;;;;;;;;/q;;;;;;;;;;5*-2;;;;;;/p-20",DZHUTCDIQDURCC-UHFFFAOYSA-A,[OH-].[OH-].[OH-].[OH-].[OH-].[O--].[O--].[O--].[O--].[O--].[V].[V].[V].[V].[V].[V].[O-][P]([O-])([O-])=O.[O-][P]([O-])([O-])=O.[O-][P]([O-])([O-])=O.[O-][P]([O-])([O-])=O.[O-][P]([O-])([O-])=O,-1.3503637805000002,0.0,1,G1,945.5320000000007,-15.615999999999996,51.14400000000001,41.0,25.0,0.0,41.0,0.0,270.0,0.0,0.0,0.0,0.0,723.7499999999998,298.9155864337759,-5.847953208556695e-09,392.29940054297447
A-2326,disilver(1+) carbonate,"InChI=1S/CH2O3.Ag/c2-1(3)4;/h(H2,2,3,4);",LKZMBDSASOBTPN-UHFFFAOYSA-N,[Ag].OC(O)=O,-3.4520216786,0.0,1,G1,169.892,0.21989999999999993,10.6536,5.0,1.0,2.0,4.0,0.0,35.0,0.0,0.0,0.0,0.0,57.53,44.12264348555901,0.0,29.87430298092722
A-2329,potassium dodecyl hydrogen phosphate,"InChI=1S/C12H27O4P.K/c1-2-3-4-5-6-7-8-9-10-11-12-16-17(13,14)15;/h2-12H2,1H3,(H2,13,14,15);/q;+1/p-1",MJHORFXTDAGQEU-UHFFFAOYSA-M,[K+].CCCCCCCCCCCCO[P](O)([O-])=O,-3.7844860574,0.0,1,G1,304.40799999999996,0.38859999999999945,67.62130000000005,18.0,3.0,1.0,6.0,12.0,104.0,0.0,0.0,0.0,0.0,69.59,153.92780238992881,0.0,208.25409123734886
A-2331,aluminium(3+) ion trifluoride,InChI=1S/Al.3FH/h;3*1H/q+3;;;/p-3,KLZUFWVZNOTSEM-UHFFFAOYSA-K,[F-].[F-].[F-].[Al+3],-4.1998793145999995,0.0,1,G1,83.976,-9.3688,5.754,4.0,0.0,0.0,4.0,0.0,24.0,0.0,0.0,0.0,0.0,0.0,32.42797964509352,-0.0,3.2451124978365313
A-2334,2-(4-phenylbenzoyl)benzoic acid,"InChI=1S/C20H14O3/c21-19(17-8-4-5-9-18(17)20(22)23)16-12-10-15(11-13-16)14-6-2-1-3-7-14/h1-13H,(H,22,23)",NBYNVBRXIUUSIG-UHFFFAOYSA-N,OC(=O)c1ccccc1C(=O)c2ccc(cc2)c3ccccc3,-4.8282334666,0.0,1,G1,302.329,4.282800000000003,88.71180000000003,23.0,2.0,1.0,3.0,4.0,112.0,3.0,0.0,0.0,3.0,54.37,133.3927537127018,1.940424929631592,849.5699680792155
A-2335,"1,3,5,7-tetranitro-1,3,5,7-tetrazocane",InChI=1S/C4H8N8O8/c13-9(14)5-1-6(10(15)16)3-8(12(19)20)4-7(2-5)11(17)18/h1-4H2,UZGLIIJVICEWHF-UHFFFAOYSA-N,[O-][N+](=O)N1CN(CN(CN(C1)[N+]([O-])=O)[N+]([O-])=O)[N+]([O-])=O,-4.8251168095,0.08061109191619396,3,G5,296.156,-2.195199999999998,54.8016,20.0,8.0,0.0,16.0,4.0,112.0,0.0,1.0,1.0,1.0,185.52,108.36002786924271,3.018981601296637,352.1928094887363
A-2336,"1-[(1E,5Z,9Z)-2,5,10-trimethylcyclododeca-1,5,9-trien-1-yl]ethan-1-one; 1-[(1R)-2,5,10-trimethylcyclododeca-2,5,9-trien-1-yl]ethan-1-one; 1-[(1R)-4,9-dimethyl-12-methylidenecyclododeca-4,8-dien-1-yl]ethan-1-one; 1-[(1S)-2,5,10-trimethylcyclododeca-2,5,9-trien-1-yl]ethan-1-one; 1-[(1S)-4,9-dimethyl-12-methylidenecyclododeca-4,8-dien-1-yl]ethan-1-one","InChI=1S/5C17H26O/c5*1-13-7-5-6-8-14(2)10-12-17(16(4)18)15(3)11-9-13/h7-8H,5-6,9-12H2,1-4H3;2*7-8,11,17H,5-6,9-10,12H2,1-4H3;2*7-8,17H,3,5-6,9-12H2,1-2,4H3/b13-7-,14-8-,17-15+;;;;/t;4*17-/m.1010/s1",IBZATQUGDOLKJX-GPRJLHHYSA-N,CC(=O)[C@H]1CCC(=CCCC=C(C)CCC1=C)C.CC(=O)[C@@H]2CCC(=CCCC=C(C)CCC2=C)C.CC(=O)[C@H]3CCC(=CCCC=C(C)CC=C3C)C.CC(=O)[C@@H]4CCC(=CCCC=C(C)CC=C4C)C.CC/5=C/CC\C=C(C)/CC/C(=C(/C)CC5)C(C)=O,-5.4491260218,0.0,1,G1,1231.9699999999991,25.11710000000004,392.705000000002,90.0,5.0,0.0,5.0,5.0,500.0,0.0,0.0,5.0,5.0,85.35,552.8521225010701,5.62499995530382e-07,2616.386544979094
A-2337,2-[(E)-2-(1-cyano-1-methylpropyl)diazen-1-yl]-2-methylbutanenitrile,"InChI=1S/C10H16N4/c1-5-9(3,7-11)13-14-10(4,6-2)8-12/h5-6H2,1-4H3",AVTLBBWTUPQRAY-UHFFFAOYSA-N,CCC(C)(N=NC(C)(CC)C#N)C#N,-2.6961915261000002,0.0,1,G1,192.266,2.8231600000000014,53.47400000000003,14.0,4.0,0.0,4.0,4.0,76.0,0.0,0.0,0.0,0.0,72.3,85.25566726482553,4.761626319375112,266.2243091952653
A-2338,(2S)-2-aminopentanedioic acid; 2-(bis(2-hydroxyethyl)amino)ethanol,"InChI=1S/C6H15NO3.C5H9NO4/c8-4-1-7(2-5-9)3-6-10;6-3(5(9)10)1-2-4(7)8/h8-10H,1-6H2;3H,1-2,6H2,(H,7,8)(H,9,10)/t;3-/m.0/s1",TUBPSFQENHCYBW-HVDRVSQOSA-N,N[C@@H](CCC(O)=O)C(O)=O.OCCN(CCO)CCO,0.111437809,0.0,1,G1,296.32000000000005,-2.4715999999999974,70.17840000000002,20.0,7.0,6.0,9.0,10.0,120.0,0.0,0.0,0.0,0.0,164.54999999999998,116.78844065360856,0.0,248.89153247518018
A-2342,"4-(2,3,4-trihydroxybenzoyl)phenyl 5-oxo-6-[(1E)-tetraaza-1,3-dien-1-yl]-5,8-dihydronaphthalene-1-sulfonate","InChI=1S/C23H16N4O8S/c24-26-27-25-17-10-8-14-15(21(17)30)2-1-3-19(14)36(33,34)35-13-6-4-12(5-7-13)20(29)16-9-11-18(28)23(32)22(16)31/h1-7,9-11,24,28,31-32H,8H2",WVRFNJXNBZHDGZ-UHFFFAOYSA-N,Oc1ccc(c(O)c1O)C(=O)c2ccc(O[S](=O)(=O)c3cccc4C(=O)C(=CCc34)N=NN=N)cc2,-5.1052907305,0.0,1,G1,508.46800000000025,3.8229700000000024,121.68790000000003,36.0,10.0,4.0,13.0,7.0,182.0,3.0,0.0,1.0,4.0,199.13000000000002,202.98228108453947,1.5877243597854431,1578.3370693621737
A-2345,"2-chlorobuta-1,3-diene","InChI=1S/C4H5Cl/c1-3-4(2)5/h3H,1-2H2",YACLQRRMGMJLJV-UHFFFAOYSA-N,ClC(=C)C=C,-2.5509254551,0.0,1,G1,88.53699999999999,1.9249,25.189999999999994,5.0,0.0,0.0,1.0,1.0,28.0,0.0,0.0,0.0,0.0,0.0,36.75813753353254,3.204805417886435,54.668290500398435
A-2346,(ethenesulfonyl)methanesulfonylethene,"InChI=1S/C5H8O4S2/c1-3-10(6,7)5-11(8,9)4-2/h3-4H,1-2,5H2",IJHIIHORMWQZRQ-UHFFFAOYSA-N,C=C[S](=O)(=O)C[S](=O)(=O)C=C,-3.9198954495,0.0,1,G1,196.24899999999997,0.06050000000000022,43.100600000000014,11.0,4.0,0.0,6.0,4.0,64.0,0.0,0.0,0.0,0.0,68.28,66.07061018462065,4.810208616850594,309.94365638711577
A-2347,tetrafluoromethane,"InChI=1S/CF4/c2-1(3,4)5",TXEYQDLBPFQVAA-UHFFFAOYSA-N,FC(F)(F)F,-3.6703396281,0.0,1,G1,88.00300000000001,1.4756999999999998,7.163,5.0,0.0,0.0,4.0,0.0,32.0,0.0,0.0,0.0,0.0,0.0,25.401392639534482,3.0237157840738176,19.11941547876375
A-2348,4-(2-phenylpropan-2-yl)phenol,"InChI=1S/C15H16O/c1-15(2,12-6-4-3-5-7-12)13-8-10-14(16)11-9-13/h3-11,16H,1-2H3",QBDSZLJBMIMQRS-UHFFFAOYSA-N,CC(C)(c1ccccc1)c2ccc(O)cc2,-4.0964847072,0.0,1,G1,212.29199999999997,3.7181000000000024,66.67680000000004,16.0,1.0,1.0,1.0,2.0,82.0,2.0,0.0,0.0,2.0,20.23,96.37755742094684,2.4257059111812183,454.5534417002411
A-2350,"4,6-dichloro-5-nitro-2-(propylsulfanyl)pyrimidine","InChI=1S/C7H7Cl2N3O2S/c1-2-3-15-7-10-5(8)4(12(13)14)6(9)11-7/h2-3H2,1H3",DDEDQHVHVPJFAC-UHFFFAOYSA-N,CCCSc1nc(Cl)c(c(Cl)n1)[N+]([O-])=O,-4.3869446244,0.0,1,G1,268.125,3.1937000000000015,59.72140000000001,15.0,5.0,0.0,8.0,4.0,82.0,1.0,0.0,0.0,1.0,68.91999999999999,100.34814362620818,3.0255154167184997,365.4932011682862
A-2351,"disodium 2-(2,4,5,7-tetrabromo-6-oxido-3-oxo-3H-xanthen-9-yl)benzoate","InChI=1S/C20H8Br4O5.2Na/c21-11-5-9-13(7-3-1-2-4-8(7)20(27)28)10-6-12(22)17(26)15(24)19(10)29-18(9)14(23)16(11)25;;/h1-6,25H,(H,27,28);;/q;2*+1/p-2",SEACYXSIPDVVMV-UHFFFAOYSA-L,[Na+].[Na+].[O-]C(=O)c1ccccc1C2=C3C=C(Br)C(=O)C(=C3Oc4c(Br)c([O-])c(Br)cc24)Br,-0.8400175948,0.0,1,G1,691.8590000000002,-0.940099999999997,119.11850000000001,31.0,5.0,0.0,11.0,2.0,146.0,2.0,0.0,2.0,4.0,93.4,253.5845412543704,1.7066658961336926e-06,1370.3932417950364