ID,Name,InChI,InChIKey,SMILES,Solubility,SD,Ocurrences,Group,MolWt,MolLogP,MolMR,HeavyAtomCount,NumHAcceptors,NumHDonors,NumHeteroatoms,NumRotatableBonds,NumValenceElectrons,NumAromaticRings,NumSaturatedRings,NumAliphaticRings,RingCount,TPSA,LabuteASA,BalabanJ,BertzCT
A-3148,lanthanum(3+) ion trichloride,InChI=1S/3ClH.La.7H2O/h3*1H;;7*1H2/q;;;+3;;;;;;;/p-3,FDFPDGIMPRFRJP-UHFFFAOYSA-K,O.O.O.O.O.O.O.[Cl-].[Cl-].[Cl-].[La+3],0.3652265972,0.0,1,G1,371.37,-14.760899999999994,25.296599999999994,11.0,0.0,0.0,11.0,0.0,80.0,0.0,0.0,0.0,0.0,220.5,110.29673508075867,-0.0,13.647375848443572
A-3149,2-ethyloxirane,"InChI=1S/C4H8O/c1-2-4-3-5-4/h4H,2-3H2,1H3",RBACIKXCRWGCBB-UHFFFAOYSA-N,CCC1CO1,0.080542298,0.08989625099417718,3,G5,72.107,0.7952,20.030999999999995,5.0,1.0,0.0,1.0,1.0,30.0,0.0,1.0,1.0,1.0,12.53,31.941791446997023,1.9989394851788977,30.62919048309069
A-3150,aluminium(3+) ion triformate,"InChI=1S/3CH2O2.Al/c3*2-1-3;/h3*1H,(H,2,3);/q;;;+3/p-3",MJWPFSQVORELDX-UHFFFAOYSA-K,[Al+3].[O-]C=O.[O-]C=O.[O-]C=O,-0.27460032149999997,0.03975869364999997,2,G3,162.033,-5.282499999999999,23.945999999999994,10.0,6.0,0.0,7.0,0.0,54.0,0.0,0.0,0.0,0.0,120.38999999999999,67.22157811238725,-2.5714285645408165e-08,49.74860596185444
A-3151,cyclohexanone,InChI=1S/C6H10O/c7-6-4-2-1-3-5-6/h1-5H2,JHIVVAPYMSGYDF-UHFFFAOYSA-N,O=C1CCCCC1,-0.057369728099999996,0.2577497217905378,3,G5,98.14500000000001,1.5196,28.091999999999985,7.0,1.0,0.0,1.0,0.0,40.0,0.0,1.0,1.0,1.0,17.07,43.719652546327126,2.2495440947344707,68.24920506009684
A-3153,diammonium [(sulfonoperoxoato sulfato)oxy]sulfonoperoxoate,"InChI=1S/2H3N.H2O8S2/c;;1-9(2,3)7-8-10(4,5)6/h2*1H3;(H,1,2,3)(H,4,5,6)",ROOXNKNUYICQNP-UHFFFAOYSA-N,[NH4+].[NH4+].[O-][S](=O)(=O)OO[S]([O-])(=O)=O,0.5710956732,0.0,1,G1,228.20399999999998,-1.3926000000000003,33.534000000000006,12.0,8.0,2.0,12.0,3.0,78.0,0.0,0.0,0.0,0.0,205.85999999999996,68.47747518827553,-4.0499995882500426e-07,251.01955000865388
A-3159,(3-chloro-2-hydroxypropyl)trimethylazanium chloride,"InChI=1S/C6H15ClNO.ClH/c1-8(2,3)5-6(9)4-7;/h6,9H,4-5H2,1-3H3;1H/q+1;/p-1",CSPHGSFZFWKVDL-UHFFFAOYSA-M,[Cl-].C[N+](C)(C)CC(O)CCl,0.6474063078,0.0,1,G1,188.09799999999998,-2.703699999999997,39.626200000000004,10.0,1.0,1.0,4.0,3.0,64.0,0.0,0.0,0.0,0.0,20.23,73.78435998823838,0.0,82.3072265502403
A-3162,"2,2-dimethylpropane-1,3-diol","InChI=1S/C5H12O2/c1-5(2,3-6)4-7/h6-7H,3-4H2,1-2H3",SLCVBVWXLSEKPL-UHFFFAOYSA-N,CC(C)(CO)CO,0.901422988,0.0,1,G1,104.14899999999999,-0.0028000000000000247,27.95259999999999,7.0,2.0,2.0,2.0,2.0,44.0,0.0,0.0,0.0,0.0,40.46,43.787486989808,3.3604351426960584,44.041843979966416
A-3163,ethyl acetate,"InChI=1S/C4H8O2/c1-3-6-4(2)5/h3H2,1-2H3",XEKOWRVHYACXOJ-UHFFFAOYSA-N,CCOC(C)=O,-0.025404461,0.016799803818491412,3,G5,88.106,0.5694,22.30699999999999,6.0,2.0,0.0,2.0,1.0,36.0,0.0,0.0,0.0,0.0,26.3,37.10914470057002,2.831257109931365,49.50977500432694
A-3164,"(1Z,5Z)-cycloocta-1,5-diene; rhodium; dichloride","InChI=1S/2C8H12.2Cl.2Rh/c2*1-2-4-6-8-7-5-3-1;;;;/h2*1-2,7-8H,3-6H2;;;;/b2*2-1-,8-7-;;;;",LGARIVPRHUAOKP-MIXQCLKLSA-N,[Cl].[Cl].[Rh].[Rh].C\1C\C=C/CC\C=C1.C\2C\C=C/CC\C=C2,-2.4997980736,0.0,1,G1,493.0860000000004,6.719600000000004,85.20200000000004,20.0,0.0,0.0,4.0,0.0,120.0,0.0,0.0,2.0,2.0,0.0,162.52198205174096,-1.0666666542222226e-07,191.65043753297306
A-3165,"potassium hydrogen benzene-1,2-dicarboxylate","InChI=1S/C8H6O4.K/c9-7(10)5-3-1-2-4-6(5)8(11)12;/h1-4H,(H,9,10)(H,11,12);/q;+1/p-1",IWZKICVEHNUQTL-UHFFFAOYSA-M,[K+].OC(=O)c1ccccc1C([O-])=O,-0.39102443270000004,0.54046095385,2,G2,204.22199999999998,-3.2476999999999983,37.73180000000001,13.0,3.0,1.0,5.0,2.0,62.0,1.0,0.0,0.0,1.0,77.43,116.99536374813236,1.439999672400077e-06,301.67084098634456
A-3166,hexasodium; dioxido-dioxotungsten; trioxotungsten,InChI=1S/6Na.39O.12W/q6*+1;;;;;;;;;;;;;;;;;;;;;;;;;;;;;;;;;;6*-1;;;;;;;;;;;;,AZCSOJKJFMWYCX-UHFFFAOYSA-N,[Na+].[Na+].[Na+].[Na+].[Na+].[Na+].[O-][W]([O-])(=O)=O.[O-][W]([O-])(=O)=O.[O-][W]([O-])(=O)=O.O=[W](=O)=O.O=[W](=O)=O.O=[W](=O)=O.O=[W](=O)=O.O=[W](=O)=O.O=[W](=O)=O.O=[W](=O)=O.O=[W](=O)=O.O=[W](=O)=O,-0.4724611164,0.0,1,G1,2967.9809999999984,-29.060400000000023,22.65449999999999,57.0,39.0,0.0,57.0,0.0,312.0,0.0,0.0,0.0,0.0,701.6700000000004,503.630219978268,-1.8042452821040704e-08,1733.6487086129443
A-3168,sodium 2-chloroacetate,"InChI=1S/C2H3ClO2.Na/c3-1-2(4)5;/h1H2,(H,4,5);/q;+1/p-1",FDRCDNZGSXJAFP-UHFFFAOYSA-M,[Na+].[O-]C(=O)CCl,0.8486241841,0.007273554100000024,2,G3,116.479,-4.020899999999999,15.727,6.0,2.0,0.0,4.0,1.0,30.0,0.0,0.0,0.0,0.0,40.129999999999995,62.77661484405956,0.0,46.81274391313339
A-3169,azepan-2-one,"InChI=1S/C6H11NO/c8-6-4-2-1-3-5-7-6/h1-5H2,(H,7,8)",JBKVHLHDHHXQEQ-UHFFFAOYSA-N,O=C1CCCCCN1,0.8601209136,0.02057150341568708,3,G5,113.16000000000001,0.6766000000000001,31.477699999999988,8.0,1.0,1.0,2.0,0.0,46.0,0.0,1.0,1.0,1.0,29.1,49.26951472993517,2.26669651519302,80.52932501298082
A-3171,sodium nitrite,"InChI=1S/HNO2.Na/c2-1-3;/h(H,2,3);/q;+1/p-1",LPXPTNMVRIOKMN-UHFFFAOYSA-M,[Na+].[O-]N=O,1.0749962334,0.046406931037579625,3,G5,68.99499999999999,-2.7453999999999996,9.161999999999999,4.0,3.0,0.0,4.0,0.0,18.0,0.0,0.0,0.0,0.0,52.49,45.230712772049365,0.0,13.509775004326936
A-3172,sodium 4-methylbenzene-1-sulfonate,"InChI=1S/C7H8O3S.Na/c1-6-2-4-7(5-3-6)11(8,9)10;/h2-5H,1H3,(H,8,9,10);/q;+1/p-1",KVCGISUBCHHTDD-UHFFFAOYSA-M,[Na+].Cc1ccc(cc1)[S]([O-])(=O)=O,0.6245331513,0.0,1,G1,194.18699999999995,-2.096879999999998,39.14220000000002,12.0,3.0,0.0,5.0,1.0,60.0,1.0,0.0,0.0,1.0,57.199999999999996,93.83838086664613,1.2099997657000466e-06,341.41916724713917
A-3173,"1-N-(2-hydroxyethyl)-4-methoxybenzene-1,3-bis(aminium) sulfate","InChI=1S/C9H14N2O2.H2O4S/c1-13-9-3-2-7(6-8(9)10)11-4-5-12;1-5(2,3)4/h2-3,6,11-12H,4-5,10H2,1H3;(H2,1,2,3,4)",GWHLYFOWAINYAH-UHFFFAOYSA-N,COc1ccc([NH2+]CCO)cc1[NH3+].[O-][S]([O-])(=O)=O,-0.5343422948,0.0,1,G1,280.3020000000001,-2.5821999999999985,59.55490000000002,18.0,6.0,3.0,9.0,4.0,104.0,1.0,0.0,0.0,1.0,153.97,104.9614661168343,4.943076631850514e-07,454.12570664139844
A-3174,bis(prop-2-en-1-yl)amine,"InChI=1S/C6H11N/c1-3-5-7-6-4-2/h3-4,7H,1-2,5-6H2",DYUWTXWIYMHBQS-UHFFFAOYSA-N,C=CCNCC=C,-0.0790069571,0.01300347855,2,G3,97.16099999999999,0.948,33.26369999999999,7.0,1.0,1.0,1.0,4.0,40.0,0.0,0.0,0.0,0.0,12.03,44.73461771905212,2.679549206552144,49.20035947603791
A-3175,dimethyl {3-[(hydroxymethyl)amino]-3-oxopropyl}phosphonate,"InChI=1S/C6H14NO5P/c1-11-13(10,12-2)4-3-6(9)7-5-8/h8H,3-5H2,1-2H3,(H,7,9)",MCONGYNHPPCHSD-UHFFFAOYSA-N,CO[P](=O)(CCC(=O)NCO)OC,1.5784906741,0.0,1,G1,211.154,-0.0716,46.337000000000025,13.0,5.0,2.0,7.0,6.0,78.0,0.0,0.0,0.0,0.0,84.86000000000001,76.759610511022,3.85745365114857,199.20129207711153
A-3179,"2,2'-ethene-1,2-diylbis[5-({4-anilino-6-[bis(2-hydroxyethyl)amino]-1,3,5-triazin-2-yl}amino)benzenesulfonic acid]","InChI=1S/C40H44N12O10S2/c53-21-17-51(18-22-54)39-47-35(41-29-7-3-1-4-8-29)45-37(49-39)43-31-15-13-27(33(25-31)63(57,58)59)11-12-28-14-16-32(26-34(28)64(60,61)62)44-38-46-36(42-30-9-5-2-6-10-30)48-40(50-38)52(19-23-55)20-24-56/h1-16,25-26,53-56H,17-24H2,(H,57,58,59)(H,60,61,62)(H2,41,43,45,47,49)(H2,42,44,46,48,50)/b12-11+",CNGYZEMWVAWWOB-VAWYXSNFSA-N,OCCN(CCO)c1nc(Nc2ccccc2)nc(Nc3ccc(\C=C\c4ccc(Nc5nc(Nc6ccccc6)nc(n5)N(CCO)CCO)cc4[S](O)(=O)=O)c(c3)[S](O)(=O)=O)n1,-1.0592793487,0.0,1,G1,917.0,3.2767999999999997,239.87919999999963,64.0,20.0,10.0,24.0,22.0,336.0,6.0,0.0,0.0,6.0,321.5999999999999,367.14790325098204,1.3057685955177585,2575.189181806971
A-3180,hexanedinitrile,InChI=1S/C6H8N2/c7-5-3-1-2-4-6-8/h1-4H2,BTGRAWJCKBQKAO-UHFFFAOYSA-N,N#CCCCCC#N,-0.1309124421,0.0,1,G1,108.144,1.59396,29.69399999999999,8.0,2.0,0.0,2.0,3.0,42.0,0.0,0.0,0.0,0.0,47.58,49.34912096275002,2.7739011632941284,99.47067498701918
A-3181,3-oxo-N-phenylbutanamide,"InChI=1S/C10H11NO2/c1-8(12)7-10(13)11-9-5-3-2-4-6-9/h2-6H,7H2,1H3,(H,11,13)",DYRDKSSFIWVSNM-UHFFFAOYSA-N,CC(=O)CC(=O)Nc1ccccc1,-1.2990810634999999,0.0,1,G1,177.203,1.6041999999999998,50.36970000000002,13.0,2.0,1.0,3.0,3.0,68.0,1.0,0.0,0.0,1.0,46.17,76.76407796077896,2.5044549868496246,305.9606013394062
A-3184,"1,3,3-trimethyl-2-[(1E)-[2-methyl-2-(4-methylphenyl)hydrazin-1-ylidene]methyl]-3H-indol-1-ium methyl sulfate","InChI=1S/C20H24N3.CH4O4S/c1-15-10-12-16(13-11-15)23(5)21-14-19-20(2,3)17-8-6-7-9-18(17)22(19)4;1-5-6(2,3)4/h6-14H,1-5H3;1H3,(H,2,3,4)/q+1;/p-1",WYYPHFSXWSKRQJ-UHFFFAOYSA-M,CO[S]([O-])(=O)=O.CN(N=CC1=[N+](C)c2ccccc2C1(C)C)c3ccc(C)cc3,-1.6762060534999998,0.0,1,G1,417.5310000000002,3.2162200000000025,115.09960000000004,29.0,6.0,0.0,8.0,4.0,156.0,2.0,0.0,1.0,3.0,85.04,172.4547476194899,4.3840573842838937e-07,1026.14666390903
A-3185,"2-[(1E)-[2-(4-methoxyphenyl)-2-methylhydrazin-1-ylidene]methyl]-1,3,3-trimethyl-3H-indol-1-ium methyl sulfate","InChI=1S/C20H24N3O.CH4O4S/c1-20(2)17-8-6-7-9-18(17)22(3)19(20)14-21-23(4)15-10-12-16(24-5)13-11-15;1-5-6(2,3)4/h6-14H,1-5H3;1H3,(H,2,3,4)/q+1;/p-1",SPWPAFQLIZTXFN-UHFFFAOYSA-M,COc1ccc(cc1)N(C)N=CC2=[N+](C)c3ccccc3C2(C)C.CO[S]([O-])(=O)=O,-1.6925364836,0.0,1,G1,433.5300000000002,2.916400000000001,116.91460000000004,30.0,7.0,0.0,9.0,5.0,162.0,2.0,0.0,1.0,3.0,94.26999999999998,177.56829284899686,4.693054860196486e-07,1044.5664477579485
A-3186,"2-butyl-2-ethylpropane-1,3-diol","InChI=1S/C9H20O2/c1-3-5-6-9(4-2,7-10)8-11/h10-11H,3-8H2,1-2H3",DSKYSDCYIODJPC-UHFFFAOYSA-N,CCCCC(CC)(CO)CO,-1.2603343364,0.0,1,G1,160.257,1.5575999999999999,46.42060000000002,11.0,2.0,2.0,2.0,6.0,68.0,0.0,0.0,0.0,0.0,40.46,69.24725544739442,3.8352571576460592,79.2988603028468
A-3190,iodomethane,InChI=1S/CH3I/c1-2/h1H3,INQOMBQAUSQDDS-UHFFFAOYSA-N,CI,-1.2145838492,0.10274845415,2,G3,141.939,1.0512000000000001,19.943999999999996,2.0,0.0,0.0,1.0,0.0,14.0,0.0,0.0,0.0,0.0,0.0,28.001089148873188,1.0,2.0
A-3193,(2E)-2-methylpent-2-enal,"InChI=1S/C6H10O/c1-3-4-6(2)5-7/h4-5H,3H2,1-2H3/b6-4+",IDEYZABHVQLHAF-GQCTYLIASA-N,CC\C=C(/C)C=O,-1.0573697281,0.0,1,G1,98.14499999999998,1.5416,30.111999999999988,7.0,1.0,0.0,1.0,2.0,40.0,0.0,0.0,0.0,0.0,17.07,44.035880667672096,3.490361883601098,82.18080946738405
A-3195,Pyromellitic dianhydride,InChI=1S/C10H2O6/c11-7-3-1-4-6(10(14)16-8(4)12)2-5(3)9(13)15-7/h1-2H,ANSXAPJVJOKRDJ-UHFFFAOYSA-N,O=C1OC(=O)c2cc3C(=O)OC(=O)c3cc12,-1.4062217243000001,0.00674346945000015,2,G3,218.11999999999995,-0.5045999999999998,53.438,16.0,6.0,0.0,6.0,0.0,78.0,3.0,0.0,0.0,3.0,94.56,85.0294791112961,2.7986395701748545,769.6521153807564
A-3196,butyl 4-oxopentanoate,"InChI=1S/C9H16O3/c1-3-4-7-12-9(11)6-5-8(2)10/h3-7H2,1-2H3",ISBWNEKJSSLXOD-UHFFFAOYSA-N,CCCCOC(=O)CCC(C)=O,-1.3066747459999999,0.0,1,G1,172.22399999999996,1.6989,45.782000000000025,12.0,3.0,0.0,3.0,6.0,70.0,0.0,0.0,0.0,0.0,43.370000000000005,73.09537737259683,3.2765533155320856,151.85263754543286
A-3197,"5-methyl-octahydro-2-benzofuran-1,3-dione","InChI=1S/C9H12O3/c1-5-2-3-6-7(4-5)9(11)12-8(6)10/h5-7H,2-4H2,1H3",FKBMTBAXDISZGN-UHFFFAOYSA-N,CC1CCC2C(C1)C(=O)OC2=O,-1.3015260488,0.026722159600000017,2,G3,168.19199999999998,1.1221999999999999,41.09400000000001,12.0,3.0,0.0,3.0,0.0,66.0,0.0,2.0,2.0,2.0,43.370000000000005,71.08371506553836,2.169335366426631,233.92814698224578
A-3199,calcium bis(2-ethylhexanoate),"InChI=1S/2C8H16O2.Ca/c2*1-3-5-6-7(4-2)8(9)10;/h2*7H,3-6H2,1-2H3,(H,9,10);/q;;+2/p-2",LTPCXXMGKDQPAO-UHFFFAOYSA-L,[Ca++].CCCCC(CC)C([O-])=O.CCCCC(CC)C([O-])=O,-1.5917155587,0.4915508618,2,G3,326.49000000000007,1.5246000000000002,82.38000000000005,21.0,4.0,0.0,5.0,10.0,120.0,0.0,0.0,0.0,0.0,80.25999999999999,159.24649359701166,-2.945454481041324e-07,230.6615312216908
A-3201,"2,6-dimethylaniline","InChI=1S/C8H11N/c1-6-4-3-5-7(2)8(6)9/h3-5H,9H2,1-2H3",UFFBMTHBGFGIHF-UHFFFAOYSA-N,Cc1cccc(C)c1N,-1.167514488,0.09900807029999997,2,G3,121.183,1.88564,40.32840000000001,9.0,1.0,1.0,1.0,0.0,48.0,1.0,0.0,0.0,1.0,26.02,55.50117804530289,3.2478347337367026,195.55766205433733
A-3202,"1,4-dimethyl cyclohexane-1,4-dicarboxylate","InChI=1S/C10H16O4/c1-13-9(11)7-3-5-8(6-4-7)10(12)14-2/h7-8H,3-6H2,1-2H3",LNGAGQAGYITKCW-UHFFFAOYSA-N,COC(=O)C1CCC(CC1)C(=O)OC,-1.3871946661,0.0,1,G1,200.23399999999998,1.1387999999999998,49.48000000000003,14.0,4.0,0.0,4.0,2.0,80.0,0.0,1.0,1.0,1.0,52.60000000000001,83.56803356297111,2.3807662794155533,192.16188799454835
A-3204,"sodium 1,4-bis[(2-ethylhexyl)oxy]-1,4-dioxobutane-2-sulfonate","InChI=1S/C20H38O7S.Na/c1-5-9-11-16(7-3)14-26-19(21)13-18(28(23,24)25)20(22)27-15-17(8-4)12-10-6-2;/h16-18H,5-15H2,1-4H3,(H,23,24,25);/q;+1/p-1",APSBXTVYXVQYAB-UHFFFAOYSA-M,[Na+].CCCCC(CC)COC(=O)CC(C(=O)OCC(CC)CCCC)[S]([O-])(=O)=O,-1.7357141887,0.0,1,G1,444.5660000000003,0.8135000000000014,106.63220000000008,29.0,7.0,0.0,9.0,16.0,166.0,0.0,0.0,0.0,0.0,109.80000000000001,198.26532149321906,0.0,551.0329672298398
A-3205,4-aminobenzamide,"InChI=1S/C7H8N2O/c8-6-3-1-5(2-4-6)7(9)10/h1-4H,8H2,(H2,9,10)",QIKYZXDTTPVVAC-UHFFFAOYSA-N,NC(=O)c1ccc(N)cc1,-1.2255453859,0.0,1,G1,136.154,0.3677,39.3723,10.0,2.0,2.0,3.0,1.0,52.0,1.0,0.0,0.0,1.0,69.11,58.63764872796276,3.003400684579818,240.28794892648057
A-3206,"1,3-dimethyl-3,7-dihydro-1H-purine-2,6-dione","InChI=1S/C7H8N4O2/c1-10-5-4(8-3-9-5)6(12)11(2)7(10)13/h3H,1-2H3,(H,8,9)",ZFXYFBGIUFBOJW-UHFFFAOYSA-N,CN1C(=O)N(C)c2nc[nH]c2C1=O,-1.3525852601,0.016929133600000035,2,G3,180.16699999999997,-1.039700000000001,46.57570000000001,13.0,5.0,1.0,6.0,0.0,68.0,2.0,0.0,0.0,2.0,72.68,72.45404341715741,3.21185381303522,574.1705593822571
A-3208,"2,2,4-trimethylhexanedinitrile; 2,4,4-trimethylhexanedinitrile","InChI=1S/2C9H14N2/c1-8(7-11)6-9(2,3)4-5-10;1-8(4-5-10)6-9(2,3)7-11/h2*8H,4,6H2,1-3H3",CMIRRYUUJFPVJI-UHFFFAOYSA-N,CC(CC#N)CC(C)(C)C#N.CC(CC(C)(C)CC#N)C#N,-1.5746822213999998,0.0,1,G1,300.45,4.952120000000005,86.81000000000006,22.0,4.0,0.0,4.0,6.0,120.0,0.0,0.0,0.0,0.0,95.16,135.51941685197596,0.0,477.1774455239963
A-3209,benzyldimethylamine,"InChI=1S/C9H13N/c1-10(2)8-9-6-4-3-5-7-9/h3-7H,8H2,1-2H3",XXBDWLFCJWSEKW-UHFFFAOYSA-N,CN(C)Cc1ccccc1,-1.2279188258,0.08805941289999997,2,G3,135.20999999999998,1.7482,43.83300000000003,10.0,1.0,0.0,1.0,2.0,54.0,1.0,0.0,0.0,1.0,3.24,62.286063132890156,2.5872871851548136,179.17957141667623
A-3210,trichloromethane,InChI=1S/CHCl3/c2-1(3)4/h1H,HEDRZPFGACZZDS-UHFFFAOYSA-N,ClC(Cl)Cl,-1.1738343117,0.018214632850000023,2,G3,119.37800000000001,1.9864,21.346999999999998,4.0,0.0,0.0,3.0,0.0,26.0,0.0,0.0,0.0,0.0,0.0,39.64904970847457,2.3237900077244498,8.0
A-3211,ammonium bromide,InChI=1S/BrH.H3N/h1H;1H3,SWLVFNYSXGMGBS-UHFFFAOYSA-N,[NH4+].[Br-],1.908299785,0.0,1,G1,97.943,-2.6198,5.9848,2.0,0.0,1.0,2.0,0.0,16.0,0.0,0.0,0.0,0.0,36.5,24.01693023629782,0.0,2.0
A-3212,oxolan-2-ylmethyl prop-2-enoate,"InChI=1S/C8H12O3/c1-2-8(9)11-6-7-4-3-5-10-7/h2,7H,1,3-6H2",YNXCGLKMOXLBOD-UHFFFAOYSA-N,C=CC(=O)OCC1CCCO1,-0.2954517157,0.0,1,G1,156.18099999999998,0.8945999999999998,40.13000000000001,11.0,3.0,0.0,3.0,3.0,62.0,0.0,1.0,1.0,1.0,35.53,65.98702420194984,2.1038316924891984,147.41616035477006
A-3215,potassium 4-(acetoacetylamino)benzenesulfonate,"InChI=1S/C10H11NO5S.K/c1-7(12)6-10(13)11-8-2-4-9(5-3-8)17(14,15)16;/h2-5H,6H2,1H3,(H,11,13)(H,14,15,16);/q;+1/p-1",FNLKZYBTJKUMQM-UHFFFAOYSA-M,[K+].CC(=O)CC(=O)Nc1ccc(cc1)[S]([O-])(=O)=O,0.4217473345,0.0,1,G1,295.3570000000001,-2.4876999999999985,58.33290000000002,18.0,5.0,1.0,8.0,4.0,92.0,1.0,0.0,0.0,1.0,103.37,147.31527866618225,2.8899984300508875e-06,537.8913960465259
A-3216,"(5R)-5-[(1S)-1,2-dihydroxyethyl]-4-ethoxy-3-hydroxy-5H-furan-2-one","InChI=1S/C8H12O6/c1-2-13-7-5(11)8(12)14-6(7)4(10)3-9/h4,6,9-11H,2-3H2,1H3/t4-,6+/m0/s1",ZGSCRDSBTNQPMS-UJURSFKZSA-N,CCOC1=C(O)C(=O)O[C@@H]1[C@@H](O)CO,0.5809706515999999,0.06626078349626564,3,G5,204.178,-0.9289000000000003,44.25340000000002,14.0,6.0,3.0,6.0,4.0,80.0,0.0,0.0,1.0,1.0,96.22000000000001,80.36972545853787,2.8390672764211398,258.55711902130685
A-3217,tetrasodium (1-hydroxy-1-phosphonatoethyl)phosphonate,"InChI=1S/C2H8O7P2.4Na/c1-2(3,10(4,5)6)11(7,8)9;;;;/h3H,1H3,(H2,4,5,6)(H2,7,8,9);;;;/q;4*+1/p-4",KWXLCDNSEHTOCB-UHFFFAOYSA-J,[Na+].[Na+].[Na+].[Na+].CC(O)([P]([O-])([O-])=O)[P]([O-])([O-])=O,0.42046010899999997,0.0,1,G1,293.95500000000004,-15.504200000000003,25.836799999999993,15.0,7.0,1.0,13.0,2.0,68.0,0.0,0.0,0.0,0.0,146.60999999999999,175.65484122674968,-8.333332911458357e-08,219.37473982306136
A-3218,"1,4-dimethyl (2Z)-but-2-enedioate","InChI=1S/C6H8O4/c1-9-5(7)3-4-6(8)10-2/h3-4H,1-2H3/b4-3-",LDCRTTXIJACKKU-ARJAWSKDSA-N,COC(=O)\C=C/C(=O)OC,-0.26720487589999997,0.032691651705102555,3,G5,144.12599999999998,-0.11140000000000017,33.172,10.0,4.0,0.0,4.0,2.0,56.0,0.0,0.0,0.0,0.0,52.60000000000001,58.42449322672962,3.7526030864834103,141.13075145540293
A-3219,"2-methylbenzene-1,4-diol","InChI=1S/C7H8O2/c1-5-4-6(8)2-3-7(5)9/h2-4,8-9H,1H3",CNHDIAIOKMXOLK-UHFFFAOYSA-N,Cc1cc(O)ccc1O,-0.20741751739999997,0.0,1,G1,124.13899999999997,1.4062199999999998,34.5086,9.0,2.0,2.0,2.0,0.0,48.0,1.0,0.0,0.0,1.0,40.46,53.384812738285596,3.1716780304409156,218.15617759993404
A-3220,"1,3-dimethylurea","InChI=1S/C3H8N2O/c1-4-3(6)5-2/h1-2H3,(H2,4,5,6)",MGJKQDOBUOMPEZ-UHFFFAOYSA-N,CNC(=O)NC,0.9386362339000001,0.0,1,G1,88.11,-0.4548000000000001,23.515399999999996,6.0,1.0,2.0,3.0,0.0,36.0,0.0,0.0,0.0,0.0,41.13,36.73038172388261,2.9881608821342693,46.75488750216347
A-3222,tetraazanium dioxido-dioxomolybdenum,InChI=1S/2Mo.4H3N.8O/h;;4*1H3;;;;;;;;/q;;;;;;;;;;4*-1/p+4,NZRDUKISIQWGIN-UHFFFAOYSA-R,[NH4+].[NH4+].[NH4+].[NH4+].[O-][Mo]([O-])(=O)=O.[O-][Mo]([O-])(=O)=O,-2.5804798622,0.0,1,G1,392.028,-3.7314000000000025,26.68520000000002,14.0,8.0,4.0,14.0,0.0,96.0,0.0,0.0,0.0,0.0,306.52,86.71645781760022,-1.7777777696296295e-08,215.7164046453176
A-3223,sodium 3-[(2-carboxyethyl)(2-ethylhexyl)amino]propanoate,"InChI=1S/C14H27NO4.Na/c1-3-5-6-12(4-2)11-15(9-7-13(16)17)10-8-14(18)19;/h12H,3-11H2,1-2H3,(H,16,17)(H,18,19);/q;+1/p-1",WVQFKDGIJVWORA-UHFFFAOYSA-M,[Na+].CCCCC(CC)CN(CCC(O)=O)CCC([O-])=O,0.4104692649,0.0,1,G1,295.355,-1.876499999999996,71.62280000000005,20.0,4.0,1.0,6.0,12.0,112.0,0.0,0.0,0.0,0.0,80.66999999999999,143.56824351238035,0.0,255.89951810576812
A-3227,copper(2+) diacetate,"InChI=1S/2C2H4O2.Cu/c2*1-2(3)4;/h2*1H3,(H,3,4);/q;;+2/p-2",OPQARKPSCNTWTJ-UHFFFAOYSA-L,[Cu++].CC([O-])=O.CC([O-])=O,-0.37553571210000003,0.0,1,G1,181.634,-2.490099999999999,21.36199999999999,9.0,4.0,0.0,5.0,0.0,57.0,0.0,0.0,0.0,0.0,80.25999999999999,63.347040501248905,-7.199999951999999e-08,70.56842503028855
A-3230,"N,N-dimethylmethanaminium chloride",InChI=1S/C3H9N.ClH/c1-4(2)3;/h1-3H3;1H,SZYJELPVAFJOGJ-UHFFFAOYSA-N,[H+].[Cl-].CN(C)C,0.8993339870999999,0.0,1,G1,95.57300000000001,-2.7056999999999984,20.722999999999995,5.0,1.0,0.0,2.0,0.0,34.0,0.0,0.0,0.0,0.0,3.24,40.86686054887108,-4.499999910000001e-08,15.509775004326936
A-3232,"N-methylmethanaminium (2,4-dichlorophenoxy)acetate","InChI=1S/C8H6Cl2O3.C2H7N/c9-5-1-2-7(6(10)3-5)13-4-8(11)12;1-3-2/h1-3H,4H2,(H,11,12);3H,1-2H3",IUQJDHJVPLLKFL-UHFFFAOYSA-N,CNC.OC(=O)COc1ccc(Cl)cc1Cl,0.44997722090000003,0.0,1,G1,266.124,2.2924000000000007,64.57650000000002,16.0,3.0,2.0,6.0,3.0,90.0,1.0,0.0,0.0,1.0,58.56,104.12269844973065,6.730768532686632e-07,344.83606869730977
A-3233,methyl 3-methoxypropanoate,"InChI=1S/C5H10O3/c1-7-4-3-5(6)8-2/h3-4H2,1-2H3",BDJSOPWXYLFTNW-UHFFFAOYSA-N,COCCC(=O)OC,0.8026937067000001,0.0,1,G1,118.13199999999999,0.19589999999999996,28.508999999999986,8.0,3.0,0.0,3.0,3.0,48.0,0.0,0.0,0.0,0.0,35.53,48.5876320444735,2.988598647973156,70.07403392114696
A-3234,potassium cyanate,InChI=1S/CHNO.K/c2-1-3;/h3H;/q;+1/p-1,GKKCIDNWFBPDBW-UHFFFAOYSA-M,[K+].[O-]C#N,0.9659600909,0.0,1,G1,81.11500000000001,-4.168220000000001,5.6129999999999995,4.0,2.0,0.0,3.0,0.0,16.0,0.0,0.0,0.0,0.0,46.849999999999994,66.84862915685684,0.0,29.509775004326936
A-3235,4-(vinyloxy)butan-1-ol,"InChI=1S/C6H12O2/c1-2-8-6-4-3-5-7/h2,7H,1,3-6H2",HMBNQNDUEFFFNZ-UHFFFAOYSA-N,OCCCCOC=C,-0.18999534,0.0,1,G1,116.16,0.9189999999999999,32.46879999999999,8.0,2.0,1.0,2.0,5.0,48.0,0.0,0.0,0.0,0.0,29.46,49.782137549331225,2.616293090417985,52.49022499567306