ID,Name,InChI,InChIKey,SMILES,Solubility,SD,Ocurrences,Group,MolWt,MolLogP,MolMR,HeavyAtomCount,NumHAcceptors,NumHDonors,NumHeteroatoms,NumRotatableBonds,NumValenceElectrons,NumAromaticRings,NumSaturatedRings,NumAliphaticRings,RingCount,TPSA,LabuteASA,BalabanJ,BertzCT
A-1576,2-(tert-butylperoxy)-2-methylpropane,"InChI=1S/C8H18O2/c1-7(2,3)9-10-8(4,5)6/h1-6H3",LSXWFXONGKSEMY-UHFFFAOYSA-N,CC(C)(C)OOC(C)(C)C,-2.9320403695999997,0.11647981520000017,2,G3,146.23,2.531600000000001,41.67600000000001,10.0,2.0,0.0,2.0,1.0,62.0,0.0,0.0,0.0,0.0,18.46,63.45023160335785,3.563001750182873,80.80566875783265
A-1577,ethyl 3-phenylacrylate,"InChI=1S/C11H12O2/c1-2-13-11(12)9-8-10-6-4-3-5-7-10/h3-9H,2H2,1H3/b9-8+",KBEBGUQPQBELIU-CMDGGOBGSA-N,CCOC(=O)\C=C\c1ccccc1,-3.0130467638,0.008723381899999882,2,G3,176.215,2.2629,52.10900000000003,13.0,2.0,0.0,2.0,3.0,68.0,1.0,0.0,0.0,1.0,26.3,77.8415779888464,2.538214333042918,288.21840549259923
A-1578,"sodium 2-[(4-hydroxy-9,10-dioxo-9,10-dihydroanthracen-1-yl)amino]-5-methylbenzene-1-sulfonate","InChI=1S/C21H15NO6S.Na/c1-11-6-7-14(17(10-11)29(26,27)28)22-15-8-9-16(23)19-18(15)20(24)12-4-2-3-5-13(12)21(19)25;/h2-10,22-23H,1H3,(H,26,27,28);/q;+1/p-1",GTKIEPUIFBBXJQ-UHFFFAOYSA-M,[Na+].Cc1ccc(Nc2ccc(O)c3C(=O)c4ccccc4C(=O)c23)c(c1)[S]([O-])(=O)=O,-2.4023932811,0.3837560668000001,2,G3,431.4010000000002,0.12772000000000017,103.83870000000003,30.0,7.0,2.0,9.0,3.0,146.0,3.0,0.0,1.0,4.0,123.6,194.34376248992984,2.559997189869837e-06,1317.0670432644094
A-1579,"2,3-dihydro-1,2-benzothiazol-3-one","InChI=1S/C7H5NOS/c9-7-5-3-1-2-4-6(5)10-8-7/h1-4H,(H,8,9)",DMSMPAJRVJJAGA-UHFFFAOYSA-N,O=C1NSc2ccccc12,-1.9472895459000001,0.23501306102923525,12,G5,151.18999999999997,1.5896,42.445700000000016,10.0,2.0,1.0,3.0,0.0,50.0,2.0,0.0,0.0,2.0,32.86,61.27569099157935,3.070614737543394,400.8983534112405
A-1585,2-methyl-1-[4-(methylsulfanyl)phenyl]-2-(morpholin-4-yl)propan-1-one,"InChI=1S/C15H21NO2S/c1-15(2,16-8-10-18-11-9-16)14(17)12-4-6-13(19-3)7-5-12/h4-7H,8-11H2,1-3H3",LWRBVKNFOYUCNP-UHFFFAOYSA-N,CSc1ccc(cc1)C(=O)C(C)(C)N2CCOCC2,-4.1933811426,0.0,1,G1,279.405,2.702000000000001,79.02450000000005,19.0,4.0,0.0,4.0,4.0,104.0,1.0,1.0,1.0,2.0,29.540000000000003,118.86806202065648,2.154650094726593,435.9637256936239
A-1587,Isolongifolanone,"InChI=1S/C15H24O/c1-13(2)7-6-11(16)12-14(3,4)10-5-8-15(12,13)9-10/h10,12H,5-9H2,1-4H3",VCOCESNMLNDPLX-UHFFFAOYSA-N,CC1(C)C2CCC3(C2)C1C(=O)CCC3(C)C,-4.0976122125,0.07880392669999958,2,G3,220.35599999999997,3.818000000000003,65.06700000000005,16.0,1.0,0.0,1.0,0.0,90.0,0.0,3.0,3.0,3.0,17.07,98.99246926883812,2.1375574290078867,352.44645225201987
A-1588,"1,1-dimethylpropyl 2-(ethylperoxy)hexanoate","InChI=1S/C13H26O3/c1-6-9-10-11(7-2)12(14)15-16-13(4,5)8-3/h11H,6-10H2,1-5H3",IFXDUNDBQDXPQZ-UHFFFAOYSA-N,CCCCC(CC)C(=O)OOC(C)(C)CC,-4.116871778,0.0,1,G1,230.34799999999996,3.8662000000000027,64.85300000000005,16.0,3.0,0.0,3.0,8.0,96.0,0.0,0.0,0.0,0.0,35.53,99.43646427538465,4.014652518464185,199.35438738204337
A-1591,"1,1-dimethoxycyclododecane","InChI=1S/C14H28O2/c1-15-14(16-2)12-10-8-6-4-3-5-7-9-11-13-14/h3-13H2,1-2H3",XXNCXSHVDVCRKB-UHFFFAOYSA-N,COC1(CCCCCCCCCCC1)OC,-4.125654351600001,0.0,1,G1,228.37599999999995,4.280200000000004,67.53600000000006,16.0,2.0,0.0,2.0,2.0,96.0,0.0,1.0,1.0,1.0,18.46,100.70475782047001,2.4083973495952407,150.11827660204978
A-1599,"5-[(5-sulfanylidene-4,5-dihydro-1,3,4-thiadiazol-2-yl)disulfanyl]-2,3-dihydro-1,3,4-thiadiazole-2-thione","InChI=1S/C4H2N4S6/c9-1-5-7-3(11-1)13-14-4-8-6-2(10)12-4/h(H,5,9)(H,6,10)",DJCISYVIXPWVHY-UHFFFAOYSA-N,S=C1NN=C(SSC2=NNC(=S)S2)S1,-3.2522133148,0.0,1,G1,298.49,3.5141799999999996,66.3114,14.0,8.0,2.0,10.0,3.0,74.0,2.0,0.0,0.0,2.0,57.36,104.94846555846937,2.009003670325101,469.6690510777121
A-1600,nonan-2-one,"InChI=1S/C9H18O/c1-3-4-5-6-7-8-9(2)10/h3-8H2,1-2H3",VKCYHJWLYTUGCC-UHFFFAOYSA-N,CCCCCCCC(C)=O,-2.9303113789,0.17332871919999993,2,G3,142.242,2.935900000000002,44.057000000000016,10.0,1.0,0.0,1.0,6.0,60.0,0.0,0.0,0.0,0.0,17.07,63.820310043046184,2.8385891218139165,86.72905595320057
A-1601,"1-methyl-2,4-dinitrobenzene; 2-methyl-1,3-dinitrobenzene","InChI=1S/C7H6N2O4/c1-5-2-3-6(8(10)11)4-7(5)9(12)13/h2-4H,1H3",RMBFBMJGBANMMK-UHFFFAOYSA-N,Cc1ccc(cc1[N+]([O-])=O)[N+]([O-])=O,-3.040285322,0.11143416433685857,3,G5,182.135,1.8114200000000005,44.487800000000014,13.0,4.0,0.0,6.0,2.0,68.0,1.0,0.0,0.0,1.0,86.28,73.10229667889317,3.267052212361692,374.7553335743196
A-1602,"Phosphorodithioic acid, mixed O,O-bis(iso-Bu and pentyl) esters, zinc salts","InChI=1S/2C8H19O2PS2.Zn/c2*1-7(2)5-9-11(12,13)10-6-8(3)4;/h2*7-8H,5-6H2,1-4H3,(H,12,13);/q;;+2/p-2",CFGBPGNQMWYJPH-UHFFFAOYSA-L,[Zn++].CC(C)CO[P]([S-])(=S)OCC(C)C.CC(C)CO[P]([S-])(=S)OCC(C)C,-2.5192483347,0.0,1,G1,548.0660000000003,6.203500000000007,126.46000000000006,27.0,8.0,0.0,11.0,12.0,160.0,0.0,0.0,0.0,0.0,36.92,200.9505411211122,-4.114285596428574e-07,380.1362101494027
A-1606,4-[(3-hydroxypropyl)amino]-3-nitrophenol,"InChI=1S/C9H12N2O4/c12-5-1-4-10-8-3-2-7(13)6-9(8)11(14)15/h2-3,6,10,12-13H,1,4-5H2",VTXBLQLZQLHDIL-UHFFFAOYSA-N,OCCCNc1ccc(O)cc1[N+]([O-])=O,-2.1105897103,0.025164138799999902,2,G3,212.20499999999998,1.0946999999999996,54.95370000000002,15.0,5.0,3.0,6.0,5.0,82.0,1.0,0.0,0.0,1.0,95.63,86.31753487318664,2.812006596448641,353.9656228228465
A-1608,ethyl 2-methyl-4-oxo-6-pentylcyclohex-2-ene-1-carboxylate,"InChI=1S/C15H24O3/c1-4-6-7-8-12-10-13(16)9-11(3)14(12)15(17)18-5-2/h9,12,14H,4-8,10H2,1-3H3",ZJLHQWGPVWXKME-UHFFFAOYSA-N,CCCCCC1CC(=O)C=C(C)C1C(=O)OCC,-3.187166345,0.0,1,G1,252.35399999999996,3.2813000000000017,71.13600000000004,18.0,3.0,0.0,3.0,6.0,102.0,0.0,0.0,1.0,1.0,43.370000000000005,109.58959587326298,2.7355920049619513,330.6304154673283
A-1611,"8-[(4-amino-3-nitrophenyl)diazenyl]-7-hydroxy-N,N,N-trimethylnaphthalen-2-aminium chloride","InChI=1S/C19H19N5O3.ClH/c1-24(2,3)14-7-4-12-5-9-18(25)19(15(12)11-14)22-21-13-6-8-16(20)17(10-13)23(26)27;/h4-11H,1-3H3,(H2-,20,21,22,25);1H",CMPPYVDBIJWGCB-UHFFFAOYSA-N,[Cl-].C[N+](C)(C)c1ccc2C=CC(=O)C(=N/Nc3ccc(N)c(c3)[N+]([O-])=O)\c2c1,-1.3972424196000002,0.0,1,G1,401.85400000000016,-0.21019999999999633,107.71750000000004,28.0,6.0,2.0,9.0,4.0,146.0,2.0,0.0,1.0,3.0,110.62,168.0402655592313,2.8033303006617095e-06,1009.1140699157551
A-1612,"1,2-xylene","InChI=1S/C8H10/c1-7-5-3-4-6-8(7)2/h3-6H,1-2H3",CTQNGGLPUBDAKN-UHFFFAOYSA-N,Cc1ccccc1C,-2.8191677601,0.03217336626923135,5,G5,106.16799999999999,2.30344,35.916,8.0,0.0,0.0,0.0,0.0,42.0,1.0,0.0,0.0,1.0,0.0,50.16128734829018,3.134861511345448,156.14811391899892
A-1614,"1,4-xylene","InChI=1S/C8H10/c1-7-3-5-8(2)6-4-7/h3-6H,1-2H3",URLKBWYHVLBVBO-UHFFFAOYSA-N,Cc1ccc(C)cc1,-2.8191677601,0.03217336626923135,5,G5,106.16799999999999,2.30344,35.916,8.0,0.0,0.0,0.0,0.0,42.0,1.0,0.0,0.0,1.0,0.0,50.16128734829017,3.0324555320336755,138.89811391899892
A-1617,"2,3,4,5,6,7-hexahydro-1H-isoindole-1,3-dione","InChI=1S/C8H9NO2/c10-7-5-3-1-2-4-6(5)8(11)9-7/h1-4H2,(H,9,10,11)",AFJWMGOTLUUGHF-UHFFFAOYSA-N,O=C1NC(=O)C2=C1CCCC2,-1.974517726,0.0,1,G1,151.16499999999996,0.5133999999999999,38.64370000000002,11.0,2.0,1.0,3.0,0.0,58.0,0.0,0.0,2.0,2.0,46.17,64.46548687305867,2.399261940825008,239.26562344023606
A-1619,2-phenylethyl 2-methylpropanoate,"InChI=1S/C12H16O2/c1-10(2)12(13)14-9-8-11-6-4-3-5-7-11/h3-7,10H,8-9H2,1-2H3",JDQVBGQWADMTAM-UHFFFAOYSA-N,CC(C)C(=O)OCCc1ccccc1,-3.0797644375,0.03910844398490025,3,G5,192.258,2.4283,55.94300000000004,14.0,2.0,0.0,2.0,4.0,76.0,1.0,0.0,0.0,1.0,26.3,84.89612313542726,2.2575072289904474,277.63302033025855
A-1620,"4-(2,6,6-trimethylcyclohex-1-en-1-yl)but-3-en-2-one","InChI=1S/C13H20O/c1-10-6-5-9-13(3,4)12(10)8-7-11(2)14/h7-8H,5-6,9H2,1-4H3/b8-7+",PSQYTAPXSHCGMF-BQYQJAHWSA-N,CC(=O)/C=C/C1=C(C)CCCC1(C)C,-3.0798638184,0.08304457789682997,3,G5,192.30199999999996,3.6582000000000026,60.15300000000004,14.0,1.0,0.0,1.0,2.0,78.0,0.0,0.0,1.0,1.0,17.07,86.89504128273488,2.96127747123545,292.35742381695854
A-1623,"N,N-dimethyldecan-1-amine","InChI=1S/C12H27N/c1-4-5-6-7-8-9-10-11-12-13(2)3/h4-12H2,1-3H3",YWWNNLPSZSEZNZ-UHFFFAOYSA-N,CCCCCCCCCCN(C)C,-4.0452878346,0.19503369280000005,2,G3,185.355,3.6887000000000025,61.16400000000006,13.0,1.0,0.0,1.0,9.0,80.0,0.0,0.0,0.0,0.0,3.24,84.51344795639562,2.8354061560854147,89.12526634448808
A-1624,ethyl 3-[(diisopropoxyphosphorothioyl)sulfanyl]propanoate,"InChI=1S/C11H23O4PS2/c1-6-13-11(12)7-8-18-16(17,14-9(2)3)15-10(4)5/h9-10H,6-8H2,1-5H3",PMWHATAFABINDH-UHFFFAOYSA-N,CCOC(=O)CCS[P](=S)(OC(C)C)OC(C)C,-4.2747784981,0.0,1,G1,314.40900000000005,3.7473000000000027,80.43500000000006,18.0,6.0,0.0,7.0,9.0,108.0,0.0,0.0,0.0,0.0,44.760000000000005,119.05578245392948,4.247063580992732,280.76779993835055
A-1626,4-Tricyclodecylidene butanal,"InChI=1S/C14H20O/c15-7-2-1-4-10-8-11-9-14(10)13-6-3-5-12(11)13/h4,7,11-14H,1-3,5-6,8-9H2/b10-4+",WFEISWUNAJPLRX-ONNFQVAWSA-N,O=CCC\C=C1/CC2CC1C3CCCC23,-4.090187912699999,0.0,1,G1,204.31299999999996,3.3480000000000025,60.426000000000045,15.0,1.0,0.0,1.0,3.0,82.0,0.0,3.0,3.0,3.0,17.07,91.93792412225729,1.6974354216778158,291.71382576183237
A-1627,2-methyloctane-2-thiol,"InChI=1S/C9H20S/c1-4-5-6-7-8-9(2,3)10/h10H,4-8H2,1-3H3",MPBLPZLNKKGCGP-UHFFFAOYSA-N,CCCCCCC(C)(C)S,-3.9901601094,0.194517551296195,3,G5,160.326,3.6652000000000027,51.82400000000004,10.0,1.0,1.0,1.0,5.0,62.0,0.0,0.0,0.0,0.0,0.0,70.81385460640415,3.0437584089734577,71.28767654158642
A-1628,"3,7-dimethyloct-6-en-1-yl formate","InChI=1S/C11H20O2/c1-10(2)5-4-6-11(3)7-8-13-9-12/h5,9,11H,4,6-8H2,1-3H3",DZNVIZQPWLDQHI-UHFFFAOYSA-N,CC(CCOC=O)CCC=C(C)C,-4.0559608323,0.0,1,G1,184.27899999999997,2.9320000000000013,54.46200000000004,13.0,2.0,0.0,2.0,7.0,76.0,0.0,0.0,0.0,0.0,26.3,80.97413646916202,3.3431482385923896,157.47321404168017
A-1629,O-(4-bromo-2-chlorophenyl) O-ethyl S-propyl thiophosphate,"InChI=1S/C11H15BrClO3PS/c1-3-7-18-17(14,15-4-2)16-11-6-5-9(12)8-10(11)13/h5-6,8H,3-4,7H2,1-2H3",QYMMJNLHFKGANY-UHFFFAOYSA-N,CCCS[P](=O)(OCC)Oc1ccc(Br)cc1Cl,-4.365622838,0.12016607764999998,2,G3,373.63599999999997,5.7691000000000034,81.76150000000004,18.0,4.0,0.0,7.0,7.0,102.0,1.0,0.0,0.0,1.0,35.53,124.9886530478484,2.8510032626884056,444.2965436360365
A-1630,zinc bis(dinonylnaphthalenesulphonate),"InChI=1S/2C28H44O3S.Zn/c2*1-3-5-7-9-11-13-15-19-24-23-25-20-17-18-22-27(25)28(32(29,30)31)26(24)21-16-14-12-10-8-6-4-2;/h2*17-18,20,22-23H,3-16,19,21H2,1-2H3,(H,29,30,31);/q;;+2/p-2",COGHWIKGZJHSAG-UHFFFAOYSA-L,[Zn++].CCCCCCCCCc1cc2ccccc2c(c1CCCCCCCCC)[S]([O-])(=O)=O.CCCCCCCCCc3cc4ccccc4c(c3CCCCCCCCC)[S]([O-])(=O)=O,-4.7884242194,0.03488722104291976,3,G5,984.8219999999992,16.657699999999966,270.61039999999923,65.0,6.0,0.0,9.0,34.0,360.0,4.0,0.0,0.0,4.0,114.39999999999998,410.1361737234844,4.3999997584377265e-07,1963.2610944514918
A-1634,2-methyldecanal,"InChI=1S/C11H22O/c1-3-4-5-6-7-8-9-11(2)10-12/h10-11H,3-9H2,1-2H3",LBICMZLDYMBIGA-UHFFFAOYSA-N,CCCCCCCCC(C)C=O,-4.0270844645,0.24742501085000002,2,G3,170.296,3.5720000000000027,53.22100000000004,12.0,1.0,0.0,1.0,8.0,72.0,0.0,0.0,0.0,0.0,17.07,76.5501942718394,2.9479484250707477,99.17723487531202
A-1635,"dimethyl 2,5-dioxocyclohexane-1,4-dicarboxylate","InChI=1S/C10H12O6/c1-15-9(13)5-3-8(12)6(4-7(5)11)10(14)16-2/h5-6H,3-4H2,1-2H3",MHKKFFHWMKEBDW-UHFFFAOYSA-N,COC(=O)C1CC(=O)C(CC1=O)C(=O)OC,-4.1541956574,0.0,1,G1,228.19999999999996,-0.5032000000000003,50.26000000000002,16.0,6.0,0.0,6.0,2.0,88.0,0.0,1.0,1.0,1.0,86.74000000000001,91.89107776305862,2.7838229196213113,311.2184172518226
A-1636,2-(chloromethyl)oxirane; 4-[2-(4-hydroxyphenyl)propan-2-yl]phenol; 2-methyloxirane,"InChI=1S/C15H16O2.C3H5ClO.C3H6O/c1-15(2,11-3-7-13(16)8-4-11)12-5-9-14(17)10-6-12;4-1-3-2-5-3;1-3-2-4-3/h3-10,16-17H,1-2H3;3H,1-2H2;3H,2H2,1H3",ZAZDSNWVKSFFLI-UHFFFAOYSA-N,CC1CO1.CC(C)(c2ccc(O)cc2)c3ccc(O)cc3.ClCC4CO4,-4.3744000378,0.0,1,G1,378.8960000000001,4.452800000000004,104.21560000000004,26.0,4.0,2.0,5.0,3.0,142.0,2.0,2.0,2.0,4.0,65.52,159.89180054541794,2.1779219846567632e-07,611.9153622026989
A-1637,zinc(2+) ion selenite,"InChI=1S/H2O3Se.Zn/c1-4(2)3;/h(H2,1,2,3);/q;+2/p-2",PEUPCBAALXHYHP-UHFFFAOYSA-L,[Zn++].[O-][Se]([O-])=O,-4.0799654344,0.0,1,G1,192.34699999999998,-2.8801,6.440499999999999,5.0,3.0,0.0,5.0,0.0,26.0,0.0,0.0,0.0,0.0,63.19,46.49720042983951,0.0,29.87430298092722
A-1638,"3-methyl-N-nitro-3,6-dihydro-2H-1,3,5-oxadiazin-4-amine","InChI=1S/C4H8N4O3/c1-7-3-11-2-5-4(7)6-8(9)10/h2-3H2,1H3,(H,5,6)",GAYLOVDFGKQKCJ-UHFFFAOYSA-N,CN1COCN=C1N[N+]([O-])=O,-1.0022923277,0.0,1,G1,160.13299999999998,-0.9993000000000001,36.14710000000001,11.0,5.0,1.0,7.0,1.0,62.0,0.0,0.0,1.0,1.0,80.0,62.769921529403334,2.5332708578711545,191.77619205955475
A-1639,"(2R,3R,4S,5R)-2-(6-hydroxy-9H-purin-9-yl)-5-(hydroxymethyl)oxolane-3,4-diol","InChI=1S/C10H12N4O5/c15-1-4-6(16)7(17)10(19-4)14-3-13-5-8(14)11-2-12-9(5)18/h2-4,6-7,10,15-17H,1H2,(H,11,12,18)",UGQMRVRMYYASKQ-UHFFFAOYSA-N,OCC1OC(C(O)C1O)n2cnc3C(=O)N=CNc23,-1.2298486435,0.0,1,G1,268.22900000000004,-2.2688999999999995,61.158100000000026,19.0,8.0,4.0,9.0,2.0,102.0,2.0,1.0,1.0,3.0,133.49,105.66779150627382,2.0600493624191287,652.6525847705161
A-1640,"2,3,6-trimethylphenol","InChI=1S/C9H12O/c1-6-4-5-7(2)9(10)8(6)3/h4-5,10H,1-3H3",QQOMQLYQAXGHSU-UHFFFAOYSA-N,Cc1ccc(C)c(O)c1C,-1.9355008883000002,0.02318437129999995,2,G3,136.194,2.3174600000000005,42.31780000000001,10.0,1.0,1.0,1.0,0.0,54.0,1.0,0.0,0.0,1.0,20.23,61.32046321488279,3.3421538077705124,224.15033336357598
A-1643,"1,3-xylene","InChI=1S/C8H10/c1-7-4-3-5-8(2)6-7/h3-6H,1-2H3",IVSZLXZYQVIEFR-UHFFFAOYSA-N,Cc1cccc(C)c1,-2.8328690377999997,0.07518123796359769,6,G5,106.16799999999999,2.30344,35.916,8.0,0.0,0.0,0.0,0.0,42.0,1.0,0.0,0.0,1.0,0.0,50.16128734829017,3.077660437970554,159.89811391899892
A-1646,2-octanamidoacetic acid,"InChI=1S/C10H19NO3/c1-2-3-4-5-6-7-9(12)11-8-10(13)14/h2-8H2,1H3,(H,11,12)(H,13,14)",SAVLIIGUQOSOEP-UHFFFAOYSA-N,CCCCCCCC(=O)NCC(O)=O,-2.1115375925,0.0,1,G1,201.266,1.5477,54.02150000000003,14.0,2.0,2.0,4.0,8.0,82.0,0.0,0.0,0.0,0.0,66.4,84.69087019329064,3.2247663403096944,180.20592425326385
A-1647,"(1,5,5-trimethyl-6-bicyclo[2.2.1]heptanyl) acetate","InChI=1S/C12H20O2/c1-8(13)14-10-11(2,3)9-5-6-12(10,4)7-9/h9-10H,5-7H2,1-4H3",JUWUWIGZUVEFQB-UHFFFAOYSA-N,CC(=O)OC1C(C)(C)C2CCC1(C)C2,-3.8745968837,0.0,1,G1,196.28999999999994,2.7643000000000013,54.783000000000044,14.0,2.0,0.0,2.0,1.0,80.0,0.0,2.0,2.0,2.0,26.3,86.01701930868443,2.251543469814042,264.740407033215
A-1648,Dioxosilane,InChI=1S/O2Si/c1-3-2,VYPSYNLAJGMNEJ-UHFFFAOYSA-N,O=[Si]=O,-3.6026675783999997,0.40694436147036606,3,G5,60.084,-0.6184000000000001,7.126999999999999,3.0,2.0,0.0,3.0,0.0,16.0,0.0,0.0,0.0,0.0,34.14,19.40222479242814,3.2659863237109046,23.774437510817343
A-1650,(2S)-2-{[(benzyloxy)carbonyl]amino}-2-cyclohexylacetic acid,"InChI=1S/C16H21NO4/c18-15(19)14(13-9-5-2-6-10-13)17-16(20)21-11-12-7-3-1-4-8-12/h1,3-4,7-8,13-14H,2,5-6,9-11H2,(H,17,20)(H,18,19)/t14-/m0/s1",CUSYTUPJAYLNFQ-AWEZNQCLSA-N,OC(=O)[C@@H](NC(=O)OCc1ccccc1)C2CCCCC2,-3.2854336032,0.0,1,G1,291.3470000000001,2.9463000000000017,77.76150000000004,21.0,3.0,2.0,5.0,5.0,114.0,1.0,1.0,1.0,2.0,75.63000000000001,123.85567847533231,1.8442813404765874,468.4251372952477
A-1651,"(4E)-3-methyl-5-(2,6,6-trimethylcyclohex-1-en-1-yl)penta-1,4-dien-3-ol","InChI=1S/C15H24O/c1-6-15(5,16)11-9-13-12(2)8-7-10-14(13,3)4/h6,9,11,16H,1,7-8,10H2,2-5H3/b11-9+",PZGYHDPZANRCSM-PKNBQFBNSA-N,CC1=C(/C=C/C(C)(O)C=C)C(C)(C)CCC1,-3.164147933,0.0,1,G1,220.3559999999999,4.006200000000003,70.29280000000004,16.0,1.0,1.0,1.0,3.0,90.0,0.0,0.0,1.0,1.0,20.23,99.56803413149606,2.980955499379733,329.3441142708954
A-1652,methyl oct-2-ynoate,"InChI=1S/C9H14O2/c1-3-4-5-6-7-8-9(10)11-2/h3-6H2,1-2H3",FRLZQXRXIKQFNS-UHFFFAOYSA-N,CCCCCC#CC(=O)OC,-3.0091327736,0.0,1,G1,154.20899999999997,1.7431,43.93400000000002,11.0,2.0,0.0,2.0,3.0,62.0,0.0,0.0,0.0,0.0,26.3,67.93308066441232,3.3233795465551847,162.13688408103357
A-1654,manganese(2+) ion diphosphinate,"InChI=1S/Mn.2HO2P/c;2*1-3-2/h;2*(H,1,2)/q+2;;/p-2",FLFJVPPJGJSHMF-UHFFFAOYSA-L,[Mn++].[O-]P=O.[O-]P=O,-0.0813040923,0.0,1,G1,180.88199999999998,-0.8957000000000002,15.213,7.0,4.0,0.0,7.0,0.0,41.0,0.0,0.0,0.0,0.0,80.25999999999999,53.9771878420327,-3.999999981250001e-08,30.671034463057104
A-1662,"1,2-dimethyl-3-nitrobenzene","InChI=1S/C8H9NO2/c1-6-4-3-5-8(7(6)2)9(10)11/h3-5H,1-2H3",FVHAWXWFPBPFOS-UHFFFAOYSA-N,Cc1cccc(c1C)[N+]([O-])=O,-3.0033599893000003,0.05395269869999986,2,G3,151.165,2.21164,42.57040000000002,11.0,2.0,0.0,3.0,1.0,58.0,1.0,0.0,0.0,1.0,43.14,64.81426307078998,3.273580821537543,294.14357423078934
A-1665,phenyl 2-hydroxybenzoate,"InChI=1S/C13H10O3/c14-12-9-5-4-8-11(12)13(15)16-10-6-2-1-3-7-10/h1-9,14H",ZQBAKBUEJOMQEX-UHFFFAOYSA-N,Oc1ccccc1C(=O)Oc2ccccc2,-3.1547687558999997,0.0,1,G1,214.22,2.6114000000000006,59.50730000000002,16.0,3.0,1.0,3.0,2.0,80.0,2.0,0.0,0.0,2.0,46.53,92.92274052170427,2.186811345762867,491.54071015476427
A-1668,"3,7-dimethyloct-6-en-1-yl acetate","InChI=1S/C12H22O2/c1-10(2)6-5-7-11(3)8-9-14-12(4)13/h6,11H,5,7-9H2,1-4H3",JOZKFWLRHCDGJA-UHFFFAOYSA-N,CC(CCOC(C)=O)CCC=C(C)C,-4.095938730199999,0.0,1,G1,198.30599999999995,3.3221000000000025,59.07900000000004,14.0,2.0,0.0,2.0,6.0,82.0,0.0,0.0,0.0,0.0,26.3,87.33907858355862,3.4112651108248375,190.49841012019365
A-1669,"3,3,4,4,5,5,6,6,6-nonafluorohex-1-ene","InChI=1S/C6H3F9/c1-2-3(7,8)4(9,10)5(11,12)6(13,14)15/h2H,1H2",GVEUEBXMTMZVSD-UHFFFAOYSA-N,FC(F)(F)C(F)(F)C(F)(F)C(F)(F)C=C,-4.1979376006999995,0.0,1,G1,246.07199999999997,3.6406,31.092999999999993,15.0,0.0,0.0,9.0,3.0,90.0,0.0,0.0,0.0,0.0,0.0,77.36417719396447,5.4745447748931415,247.8184090293204
A-1670,2-phenylethyl 2-phenylacetate,"InChI=1S/C16H16O2/c17-16(13-15-9-5-2-6-10-15)18-12-11-14-7-3-1-4-8-14/h1-10H,11-13H2",ZOZIRNMDEZKZHM-UHFFFAOYSA-N,O=C(Cc1ccccc1)OCCc2ccccc2,-4.1887477927,0.07520654405000027,2,G3,240.30199999999996,3.0150000000000015,71.25100000000005,18.0,2.0,0.0,2.0,5.0,92.0,2.0,0.0,0.0,2.0,26.3,107.2233331126981,1.7257772363989228,476.9648515208871
A-1672,"2-({2,2-bis[(prop-2-enoyloxy)methyl]butoxy}methyl)-2-[(prop-2-enoyloxy)methyl]butyl prop-2-enoate","InChI=1S/C24H34O9/c1-7-19(25)30-15-23(11-5,16-31-20(26)8-2)13-29-14-24(12-6,17-32-21(27)9-3)18-33-22(28)10-4/h7-10H,1-4,11-18H2,5-6H3",XRMBQHTWUBGQDN-UHFFFAOYSA-N,CCC(COCC(CC)(COC(=O)C=C)COC(=O)C=C)(COC(=O)C=C)COC(=O)C=C,-4.4927855243,0.0,1,G1,466.5270000000003,2.712600000000001,120.89100000000008,33.0,9.0,0.0,9.0,18.0,184.0,0.0,0.0,0.0,0.0,114.43,194.588322077924,5.504374787969021,615.4465360912125
A-1674,"(2,4,6-trioxo-1,3,5-triazine-1,3,5(2H,4H,6H)-triyl)tri-2,1-ethanediyl triacrylate","InChI=1S/C18H21N3O9/c1-4-13(22)28-10-7-19-16(25)20(8-11-29-14(23)5-2)18(27)21(17(19)26)9-12-30-15(24)6-3/h4-6H,1-3,7-12H2",YIJYFLXQHDOQGW-UHFFFAOYSA-N,C=CC(=O)OCCN1C(=O)N(CCOC(=O)C=C)C(=O)N(CCOC(=O)C=C)C1=O,-2.4514194624,0.0,1,G1,423.37800000000027,-1.640699999999996,102.69000000000005,30.0,12.0,0.0,12.0,12.0,162.0,1.0,0.0,0.0,1.0,144.9,169.43535243030206,3.238800859505443,854.3785361965668
A-1676,"Octanoic acid, ester with 1,2,3-propanetriol","InChI=1S/C8H16O2.C3H8O3/c1-2-3-4-5-6-7-8(9)10;4-1-3(6)2-5/h2-7H2,1H3,(H,9,10);3-6H,1-2H2",SQABAALQCGKFFO-UHFFFAOYSA-N,CCCCCCCC(O)=O.OCC(O)CO,-3.2000007811,0.0,1,G1,236.308,0.7633999999999999,61.19020000000005,16.0,4.0,4.0,5.0,8.0,98.0,0.0,0.0,0.0,0.0,97.99000000000001,96.73296043415269,0.0,145.3103483230645
A-1677,4-isopropylbenzonitrile,"InChI=1S/C10H11N/c1-8(2)10-5-3-9(7-11)4-6-10/h3-6,8H,1-2H3",YFDJCWXBKWRDPW-UHFFFAOYSA-N,CC(C)c1ccc(cc1)C#N,-2.9887953027,0.0,1,G1,145.20499999999996,2.681680000000001,45.24600000000003,11.0,1.0,0.0,1.0,1.0,56.0,1.0,0.0,0.0,1.0,23.79,67.2837512585521,2.938904553897646,263.91940577975225
A-1678,"1,2-bis(prop-2-en-1-yl) benzene-1,2-dicarboxylate","InChI=1S/C14H14O4/c1-3-9-17-13(15)11-7-5-6-8-12(11)14(16)18-10-4-2/h3-8H,1-2,9-10H2",QUDWYFHPNIMBFC-UHFFFAOYSA-N,C=CCOC(=O)c1ccccc1C(=O)OCC=C,-3.2211356868000003,0.28625059891561694,4,G5,246.26199999999994,2.3722000000000003,67.40100000000002,18.0,4.0,0.0,4.0,6.0,94.0,1.0,0.0,0.0,1.0,52.60000000000001,105.52186862940262,2.907709957142368,419.61672525206325