ID,Name,InChI,InChIKey,SMILES,Solubility,SD,Ocurrences,Group,MolWt,MolLogP,MolMR,HeavyAtomCount,NumHAcceptors,NumHDonors,NumHeteroatoms,NumRotatableBonds,NumValenceElectrons,NumAromaticRings,NumSaturatedRings,NumAliphaticRings,RingCount,TPSA,LabuteASA,BalabanJ,BertzCT
A-3325,2-amino-3-sulfanylpropanoic acid hydrochloride,"InChI=1S/C3H7NO2S.ClH/c4-2(1-7)3(5)6;/h2,7H,1,4H2,(H,5,6);1H/t2-;/m0./s1",IFQSXNOEEPCSLW-DKWTVANSSA-N,[Cl-].N[C@@H](CS)C(O)=O.[H+],0.6219271018,0.03201350449020783,3,G5,157.622,-3.5553999999999983,30.5762,8.0,3.0,3.0,5.0,2.0,50.0,0.0,0.0,0.0,0.0,63.32,60.55774009132193,-1.799999899875006e-07,84.2129994085646
A-3326,Ruthenium(3+) heptaacetate,"InChI=1S/7C2H4O2.3Ru/c7*1-2(3)4;;;/h7*1H3,(H,3,4);;;/q;;;;;;;3*+3/p-7",YLYBKNICSPYRDA-UHFFFAOYSA-G,[Ru+3].[Ru+3].[Ru+3].CC([O-])=O.CC([O-])=O.CC([O-])=O.CC([O-])=O.CC([O-])=O.CC([O-])=O.CC([O-])=O,-0.0356831695,0.0,1,G1,716.5180000000003,-8.714100000000014,74.76700000000004,31.0,14.0,0.0,17.0,0.0,183.0,0.0,0.0,0.0,0.0,280.90999999999997,216.85876052953384,-2.0416666641460906e-08,321.26501708921325
A-3328,butan-1-ol,"InChI=1S/C4H10O/c1-2-3-4-5/h5H,2-4H2,1H3",LRHPLDYGYMQRHN-UHFFFAOYSA-N,CCCCO,-0.0504090528,0.028901331259045177,3,G5,74.12299999999999,0.7787999999999999,21.993799999999997,5.0,1.0,1.0,1.0,2.0,32.0,0.0,0.0,0.0,0.0,20.23,32.62831112321538,2.19060968716425,11.119415478763749
A-3329,disodium dioxomolybdenumbis(olate),InChI=1S/Mo.2Na.4O/q;2*+1;;;2*-1,TVXXNOYZHKPKGW-UHFFFAOYSA-N,[Na+].[Na+].[O-][Mo]([O-])(=O)=O,0.5020204465,0.0,1,G1,205.91599999999997,-8.610100000000001,1.373,7.0,4.0,0.0,7.0,0.0,32.0,0.0,0.0,0.0,0.0,80.25999999999999,88.59776630628264,-7.999999835000003e-08,92.8582023226588
A-3330,iron(3+) chloride sulfate,"InChI=1S/Cl.Fe.H2O4S/c;;1-5(2,3)4/h;;(H2,1,2,3,4)/p-2",NGYBMUURDZXEEA-UHFFFAOYSA-L,[Cl].[Fe].[O-][S]([O-])(=O)=O,0.540234161,0.37888686489485346,8,G5,187.361,-0.6509999999999998,16.3276,7.0,4.0,0.0,7.0,0.0,47.0,0.0,0.0,0.0,0.0,80.25999999999999,57.754896076497786,-7.999999835000003e-08,94.8582023226588
A-3331,iron(3+) ion trichloride,InChI=1S/3ClH.Fe/h3*1H;/q;;;+3/p-3,RBTARNINKXHZNM-UHFFFAOYSA-K,[Cl-].[Cl-].[Cl-].[Fe+3],0.6028517968,0.37888686486706263,8,G5,162.204,-8.990499999999999,0.0,4.0,0.0,0.0,4.0,0.0,29.0,0.0,0.0,0.0,0.0,0.0,54.42337778977272,-0.0,3.2451124978365313
A-3333,iron(+2) cation sulfate,"InChI=1S/Fe.H2O4S/c;1-5(2,3)4/h;(H2,1,2,3,4)/q+2;/p-2",BAUYGSIQEAFULO-UHFFFAOYSA-L,[Fe++].[O-][S]([O-])(=O)=O,0.6313327107,0.37888686488651,8,G5,151.908,-1.3405,10.4746,6.0,4.0,0.0,6.0,0.0,38.0,0.0,0.0,0.0,0.0,80.25999999999999,45.60180282394836,0.0,90.7164928725825
A-3335,sodium 3-({3-methoxy-4-[(4-methoxyphenyl)diazenyl]phenyl}diazenyl)benzenesulfonate,"InChI=1S/C20H18N4O5S.Na/c1-28-17-9-6-14(7-10-17)21-24-19-11-8-16(13-20(19)29-2)23-22-15-4-3-5-18(12-15)30(25,26)27;/h3-13H,1-2H3,(H,25,26,27);/q;+1/p-1",JGUAUYIJLLJIQS-UHFFFAOYSA-M,[Na+].COc1ccc(cc1)N=Nc2ccc(cc2OC)N=Nc3cccc(c3)[S]([O-])(=O)=O,-0.8354591701,0.09187935000000003,2,G3,448.43600000000015,2.442700000000001,108.74520000000001,31.0,9.0,0.0,11.0,7.0,154.0,3.0,0.0,0.0,3.0,125.1,201.4381575411628,3.413328280896666e-06,1198.4470005138612
A-3337,Pyrithione sodium,InChI=1S/C5H4NOS.Na/c7-6-4-2-1-3-5(6)8;/h1-4H;/q-1;+1,XNRNJIIJLOFJEK-UHFFFAOYSA-N,[Na+].[O-]N1C=CC=CC1=S,0.6370124426,0.023559410899999966,2,G3,149.14999999999995,-1.4325099999999993,34.031,9.0,3.0,0.0,4.0,0.0,42.0,1.0,0.0,0.0,1.0,27.99,80.38147470862961,6.399999377333394e-07,234.39964603589553
A-3339,"sodium (2R)-2-[(1S)-1,2-dihydroxyethyl]-4-hydroxy-5-oxo-2,5-dihydrofuran-3-olate","InChI=1S/C6H7O6.Na/c7-1-2(8)5-3(9)4(10)6(11)12-5;/h2,5,7-8,10H,1H2;/q-1;+1/t2-,5?;/m0./s1",IFVCRSPJFHGFCG-HXPAKLQESA-N,[Na+].OC[C@H](O)C1OC(=O)[C-](O)C1=O,0.5110430921,0.10294036495,2,G3,198.10599999999997,-5.257409999999997,33.15839999999999,13.0,6.0,3.0,7.0,2.0,68.0,0.0,1.0,1.0,1.0,104.06,95.79082075517776,1.439999606400111e-06,217.1700163058029
A-3340,nickel(2+) ion dichloride,InChI=1S/2ClH.Ni/h2*1H;/q;;+2/p-2,QMMRZOWCJAIUJA-UHFFFAOYSA-L,[Cl-].[Cl-].[Ni++],0.6949333776000001,0.29864934424999995,2,G3,129.599,-5.9945,0.0,3.0,0.0,0.0,3.0,0.0,24.0,0.0,0.0,0.0,0.0,0.0,41.72141688471463,-0.0,2.7548875021634682
A-3342,"sodium (Z)-N-({3-[(4-amino-9,10-dioxo-3-sulfo-9,10-dihydroanthracen-1-yl)amino]-5-{[(Z)-(2-chloro-1-hydroxyethylidene)amino]methyl}-2,4,6-trimethylphenyl}methyl)-2-chloroethenecarboximidate","InChI=1S/C29H28Cl2N4O7S.Na/c1-13-18(11-33-22(36)9-30)14(2)27(15(3)19(13)12-34-23(37)10-31)35-20-8-21(43(40,41)42)26(32)25-24(20)28(38)16-6-4-5-7-17(16)29(25)39;/h4-8,35H,9-12,32H2,1-3H3,(H,33,36)(H,34,37)(H,40,41,42);/q;+1/p-1",HVDUMYBPGXAPLG-UHFFFAOYSA-M,[Na+].Cc1c(CNC(=O)CCl)c(C)c(Nc2cc(c(N)c3C(=O)c4ccccc4C(=O)c23)[S]([O-])(=O)=O)c(C)c1CNC(=O)CCl,-1.0175519333,0.0,1,G1,669.519,0.3311600000000033,161.1936999999998,44.0,9.0,4.0,15.0,9.0,226.0,3.0,0.0,1.0,4.0,187.58999999999997,285.8382573709864,5.289988277885493e-06,1783.7523356946913
A-3344,3-methylbut-2-en-1-ol,"InChI=1S/C5H10O/c1-5(2)3-4-6/h3,6H,4H2,1-2H3",ASUAYTHWZCLXAN-UHFFFAOYSA-N,CC(C)=CCO,-0.128994642,0.0,1,G1,86.134,0.9448999999999999,26.51679999999999,6.0,1.0,1.0,1.0,1.0,36.0,0.0,0.0,0.0,0.0,20.23,38.30365020542773,3.1374298786373527,50.95878455585175
A-3345,calcium disulfamate,"InChI=1S/Ca.2H3NO3S/c;2*1-5(2,3)4/h;2*(H3,1,2,3,4)/q+2;;/p-2",RSIPQRDGPVEGLE-UHFFFAOYSA-L,[Ca++].N[S]([O-])(=O)=O.N[S]([O-])(=O)=O,0.43886121619999996,0.0,1,G1,232.25199999999998,-3.5702,33.5232,11.0,6.0,2.0,11.0,0.0,64.0,0.0,0.0,0.0,0.0,166.43999999999997,93.70371649755,-1.0666666593333334e-07,214.95740853719445
A-3346,"hexane-1,6-diamine",InChI=1S/C6H16N2/c7-5-3-1-2-4-6-8/h1-8H2,NAQMVNRVTILPCV-UHFFFAOYSA-N,NCCCCCCN,0.7389034055,0.09804829725000003,2,G3,116.20800000000001,0.46420000000000006,36.57679999999999,8.0,2.0,2.0,2.0,5.0,50.0,0.0,0.0,0.0,0.0,52.04,51.243742993838026,2.53006045688352,31.509775004326936
A-3347,sodium hydroxymethanesulfinate,"InChI=1S/CH4O3S.Na/c2-1-5(3)4;/h2H,1H2,(H,3,4);/q;+1/p-1",XWGJFPHUCFXLBL-UHFFFAOYSA-M,[Na+].OC[S]([O-])=O,0.731520726,0.09813491455000006,2,G3,118.08899999999998,-4.180699999999999,16.0056,6.0,3.0,1.0,5.0,1.0,32.0,0.0,0.0,0.0,0.0,60.36,60.32437623456747,0.0,46.05785641096992
A-3348,1H-imidazole,"InChI=1S/C3H4N2/c1-2-5-3-4-1/h1-3H,(H,4,5)",RAXXELZNTBOGNW-UHFFFAOYSA-N,[nH]1ccnc1,0.9683905422,0.010054909200000017,2,G3,68.079,0.40969999999999995,18.587699999999995,5.0,1.0,1.0,2.0,0.0,26.0,1.0,0.0,0.0,1.0,28.68,29.860211521457778,3.1250000000000004,61.369930610534254
A-3349,sodium hydrogen (2S)-2-aminobutanedioate,"InChI=1S/C4H7NO4.Na/c5-2(4(8)9)1-3(6)7;/h2H,1,5H2,(H,6,7)(H,8,9);/q;+1/p-1/t2-;/m0./s1",WTWSHHITWMVLBX-DKWTVANSSA-M,[Na+].N[C@@H](CC(O)=O)C([O-])=O,0.6099273323,0.0,1,G1,155.08499999999998,-5.457699999999998,25.2352,10.0,4.0,2.0,6.0,3.0,52.0,0.0,0.0,0.0,0.0,103.44999999999999,79.4988793952236,0.0,137.21928094887363
A-3352,manganese bis(dihydrogen phosphate),"InChI=1S/Mn.2H3O4P/c;2*1-5(2,3)4/h;2*(H3,1,2,3,4)/q+2;;/p-6",NAAXGLXYRDSIRS-UHFFFAOYSA-H,[Mn++].[O-][P]([O-])([O-])=O.[O-][P]([O-])([O-])=O,0.4103907799,0.0,1,G1,244.87799999999996,-5.6517,15.213,11.0,8.0,0.0,11.0,0.0,69.0,0.0,0.0,0.0,0.0,172.5,71.84038420130916,-1.0666666581111113e-07,124.40154658752398
A-3353,"1,1-dimethylpropyl hydroperoxide","InChI=1S/C5H12O2/c1-4-5(2,3)7-6/h6H,4H2,1-3H3",XRXANEMIFVRKLN-UHFFFAOYSA-N,CCC(C)(C)OO,-0.2165945745,0.0,1,G1,104.14899999999997,1.6646,28.083799999999986,7.0,2.0,1.0,2.0,2.0,44.0,0.0,0.0,0.0,0.0,29.46,44.03609378285718,3.3604351426960575,44.041843979966416
A-3354,2-phenylethan-1-amine,"InChI=1S/C8H11N/c9-7-6-8-4-2-1-3-5-8/h1-5H,6-7,9H2",BHHGXPLMPWCGHP-UHFFFAOYSA-N,NCCc1ccccc1,-0.2823811698,0.0,1,G1,121.18299999999995,1.1878,39.200400000000016,9.0,1.0,1.0,1.0,2.0,48.0,1.0,0.0,0.0,1.0,26.02,55.50117804530289,2.61489994009295,157.4784207656209
A-3357,"4-hydroxy-2,2,6,6-tetramethylpiperidinoxyl","InChI=1S/C9H18NO2/c1-8(2)5-7(11)6-9(3,4)10(8)12/h7,11H,5-6H2,1-4H3",UZFMOKQJFYMBGY-UHFFFAOYSA-N,CC1(C)CC(O)CC(C)(C)N1[O],0.5627035438,0.0,1,G1,172.248,1.3457999999999999,45.924300000000024,12.0,2.0,1.0,3.0,0.0,71.0,0.0,1.0,1.0,1.0,43.37,73.95529646354655,2.8355218903020596,159.36734879116756
A-3358,sodium 4(or 5)-methyl-1H-benzotriazolide,"InChI=1S/C7H6N3.Na/c1-5-3-2-4-6-7(5)9-10-8-6;/h2-4H,1H3;/q-1;+1",REERYFLJRPUSHT-UHFFFAOYSA-N,[Na+].Cc1cccc2n[n-]nc12,0.6051674279,0.0,1,G1,155.136,-2.100579999999998,37.595000000000006,11.0,2.0,0.0,4.0,0.0,50.0,2.0,0.0,0.0,2.0,39.88,86.4767729080575,6.049999156666785e-07,355.2131727802347
A-3360,"oxolane-2,5-dione",InChI=1S/C4H4O3/c5-3-1-2-4(6)7-3/h1-2H2,RINCXYDBBGOEEQ-UHFFFAOYSA-N,O=C1CCC(=O)O1,-0.2016662739,0.0,1,G1,100.073,-0.15000000000000002,20.332999999999995,7.0,3.0,0.0,3.0,0.0,38.0,0.0,1.0,1.0,1.0,43.370000000000005,40.26483564708455,2.5537050272065858,102.10331482049533
A-3364,calcium dipropanoate,"InChI=1S/2C3H6O2.Ca/c2*1-2-3(4)5;/h2*2H2,1H3,(H,4,5);/q;;+2/p-2",BCZXFFBUYPCTSJ-UHFFFAOYSA-L,[Ca++].CCC([O-])=O.CCC([O-])=O,-0.4769347221,0.33390312125,2,G3,186.21999999999994,-2.0881999999999987,36.35,11.0,4.0,0.0,5.0,2.0,60.0,0.0,0.0,0.0,0.0,80.25999999999999,95.59707245304557,-1.0666666563333335e-07,99.14991061829625
A-3365,"2,2-bis(hydroxymethyl)propane-1,3-diol","InChI=1S/C5H12O4/c6-1-5(2-7,3-8)4-9/h6-9H,1-4H2",WXZMFSXDPGVJKK-UHFFFAOYSA-N,OCC(CO)(CO)CO,-0.3416163866,0.06781381506792561,3,G5,136.147,-2.058,30.77619999999999,9.0,4.0,4.0,4.0,4.0,56.0,0.0,0.0,0.0,0.0,80.92,53.37595449420002,3.824684203207495,51.84847143196431
A-3367,2-methylpropanoic anhydride,"InChI=1S/C8H14O3/c1-5(2)7(9)11-8(10)6(3)4/h5-6H,1-4H3",LSACYLWPPQLVSM-UHFFFAOYSA-N,CC(C)C(=O)OC(=O)C(C)C,0.5917902317,0.0,1,G1,158.19699999999997,1.3681999999999999,40.775000000000006,11.0,3.0,0.0,3.0,2.0,64.0,0.0,0.0,0.0,0.0,43.370000000000005,66.73043525820019,3.8624101150224392,140.72010581370304
A-3369,sodium (2S)-5-oxopyrrolidine-2-carboxylate,"InChI=1S/C5H7NO3.Na/c7-4-2-1-3(6-4)5(8)9;/h3H,1-2H2,(H,6,7)(H,8,9);/q;+1/p-1/t3-;/m0./s1",CRPCXAMJWCDHFM-DFWYDOINSA-M,[Na+].[O-]C(=O)[C@@H]1CCC(=O)N1,0.6082046329,0.0,1,G1,151.097,-4.981099999999998,26.171699999999994,10.0,3.0,1.0,5.0,1.0,50.0,0.0,1.0,1.0,1.0,69.22999999999999,80.2737280904903,8.099998654500228e-07,158.97205302419658
A-3370,"disodium 3-{[ethyl({4-[(4-{ethyl[(3-sulfonatophenyl)methyl]iminiumyl}cyclohexa-2,5-dien-1-ylidene)(2-sulfonatophenyl)methyl]phenyl})amino]methyl}benzene-1-sulfonate","InChI=1S/C37H36N2O9S3.2Na/c1-3-38(25-27-9-7-11-33(23-27)49(40,41)42)31-19-15-29(16-20-31)37(35-13-5-6-14-36(35)51(46,47)48)30-17-21-32(22-18-30)39(4-2)26-28-10-8-12-34(24-28)50(43,44)45;;/h5-24H,3-4,25-26H2,1-2H3,(H2-,40,41,42,43,44,45,46,47,48);;/q;2*+1/p-2",SGHZXLIDFTYFHQ-UHFFFAOYSA-L,[Na+].[Na+].CCN(Cc1cccc(c1)[S]([O-])(=O)=O)c2ccc(cc2)[C+](c3ccc(cc3)N(CC)Cc4cccc(c4)[S]([O-])(=O)=O)c5ccccc5[S]([O-])(=O)=O,-0.1131580367,0.0,1,G1,792.8650000000005,-0.5209099999999911,190.09659999999954,53.0,11.0,0.0,16.0,14.0,266.0,5.0,0.0,0.0,5.0,178.07999999999998,355.44674936048176,3.7812433303456108e-06,2213.190730516389
A-3371,disodium phosphonate,"InChI=1S/2Na.HO3P/c;;1-4(2)3/h;;(H,1,2,3)/q2*+1;/p-1",IIRVGTWONXBBAW-UHFFFAOYSA-M,[Na+].[Na+].[O-][P](=O)=O,0.6893014740000001,0.0,1,G1,124.951,-6.5574,8.293,6.0,3.0,0.0,6.0,0.0,24.0,0.0,0.0,0.0,0.0,57.199999999999996,79.99173642950187,-4.499999940000001e-08,57.19344939991072
A-3372,"2,2,4,4-tetramethylcyclobutane-1,3-diol","InChI=1S/C8H16O2/c1-7(2)5(9)8(3,4)6(7)10/h5-6,9-10H,1-4H3",FQXGHZNSUOHCLO-UHFFFAOYSA-N,CC1(C)C(O)C(C)(C)C1O,-0.3736775878,0.0,1,G1,144.214,0.7742,39.5756,10.0,2.0,2.0,2.0,0.0,60.0,0.0,1.0,1.0,1.0,40.46,61.87648217946859,2.7809310892394867,119.33658100079687
A-3373,"tripotassium 2-hydroxypropane-1,2,3-tricarboxylate","InChI=1S/C6H8O7.3K/c7-3(8)1-6(13,5(11)12)2-4(9)10;;;/h13H,1-2H2,(H,7,8)(H,9,10)(H,11,12);;;/q;3*+1/p-3",QEEAPRPFLLJWCF-UHFFFAOYSA-K,[K+].[K+].[K+].OC(CC([O-])=O)(CC([O-])=O)C([O-])=O,0.2961937852,0.20252404835,2,G3,306.39300000000003,-14.240600000000002,29.204799999999995,16.0,7.0,1.0,10.0,5.0,74.0,0.0,0.0,0.0,0.0,140.62,218.99315699481562,-2.399999741500029e-07,238.5067183824432
A-3374,"1,4-bis({3-[2-(2-hydroxyethoxy)ethoxy]propyl}amino)-9,10-dihydroanthracene-9,10-dione","InChI=1S/C28H38N2O8/c31-11-15-37-19-17-35-13-3-9-29-23-7-8-24(30-10-4-14-36-18-20-38-16-12-32)26-25(23)27(33)21-5-1-2-6-22(21)28(26)34/h1-2,5-8,29-32H,3-4,9-20H2",FRFQXYOWMSJIJR-UHFFFAOYSA-N,OCCOCCOCCCNc1ccc(NCCCOCCOCCO)c2C(=O)c3ccccc3C(=O)c12,0.0571886956,0.10901466305000002,2,G3,530.6180000000004,2.116999999999999,143.4099999999999,38.0,10.0,4.0,10.0,20.0,208.0,2.0,0.0,1.0,3.0,135.58,222.78715699210068,1.5956925264360755,949.9083655277406
A-3375,acetic acid,"InChI=1S/C2H4O2/c1-2(3)4/h1H3,(H,3,4)",QTBSBXVTEAMEQO-UHFFFAOYSA-N,CC(O)=O,1.0017178079,0.10989109605000003,2,G3,60.05200000000001,0.09089999999999993,13.309800000000001,4.0,1.0,1.0,2.0,0.0,24.0,0.0,0.0,0.0,0.0,37.3,24.059948994465934,2.8030394876740514,27.019550008653873
A-3376,2-oxopentanedioic acid,"InChI=1S/C5H6O5/c6-3(5(9)10)1-2-4(7)8/h1-2H2,(H,7,8)(H,9,10)",KPGXRSRHYNQIFN-UHFFFAOYSA-N,OC(=O)CCC(=O)C(O)=O,0.6148800726,0.0,1,G1,146.098,-0.49509999999999993,29.512599999999992,10.0,3.0,2.0,5.0,4.0,56.0,0.0,0.0,0.0,0.0,91.66999999999999,56.272053289939294,3.6041568215284974,170.87712379549453
A-3377,disodium 3-[(3-sulfonatopropyl)disulfanyl]propane-1-sulfonate,"InChI=1S/C6H14O6S4.2Na/c7-15(8,9)5-1-3-13-14-4-2-6-16(10,11)12;;/h1-6H2,(H,7,8,9)(H,10,11,12);;/q;2*+1/p-2",WIYCQLLGDNXIBA-UHFFFAOYSA-L,[Na+].[Na+].[O-][S](=O)(=O)CCCSSCCC[S]([O-])(=O)=O,0.2286526355,0.0,1,G1,354.4040000000001,-5.753599999999996,63.27840000000003,18.0,8.0,0.0,12.0,9.0,98.0,0.0,0.0,0.0,0.0,114.39999999999998,160.2942150023979,-1.1249996070001402e-06,342.88159103902024
A-3379,2-methylprop-2-enal,"InChI=1S/C4H6O/c1-4(2)3-5/h3H,1H2,2H3",STNJBCKSHOAVAJ-UHFFFAOYSA-N,CC(=C)C=O,-0.0675110058,0.050771526659691854,4,G5,70.09100000000001,0.7614000000000001,20.877999999999993,5.0,1.0,0.0,1.0,1.0,28.0,0.0,0.0,0.0,0.0,17.07,31.305996438878886,3.204805417886435,54.668290500398435
A-3380,2-methylpropanal,"InChI=1S/C4H8O/c1-4(2)3-5/h3-4H,1-2H3",AMIMRNSIRUDHCM-UHFFFAOYSA-N,CC(C)C=O,-0.0798261768,0.0856130884,2,G3,72.107,0.8412999999999999,20.901999999999994,5.0,1.0,0.0,1.0,1.0,30.0,0.0,0.0,0.0,0.0,17.07,31.995599471063137,2.825749368745867,30.62919048309069
A-3381,"O,O-diisopropyl hydrogen dithiophosphate","InChI=1S/C6H15O2PS2/c1-5(2)7-9(10,11)8-6(3)4/h5-6H,1-4H3,(H,10,11)",SZXCCXFNQHQRGF-UHFFFAOYSA-N,CC(C)O[P](S)(=S)OC(C)C,-0.5528547078,0.0,1,G1,214.29199999999997,2.9907000000000012,55.71300000000004,11.0,3.0,1.0,5.0,4.0,68.0,0.0,0.0,0.0,0.0,18.46,78.9879611904323,3.9078360952395634,144.6612728526066
A-3385,"N,2,3-trimethyl-2-(propan-2-yl)butanamide","InChI=1S/C10H21NO/c1-7(2)10(5,8(3)4)9(12)11-6/h7-8H,1-6H3,(H,11,12)",RWAXQWRDVUOOGG-UHFFFAOYSA-N,CNC(=O)C(C)(C(C)C)C(C)C,-1.3948677058,0.0,1,G1,171.28399999999996,2.0507,51.849700000000034,12.0,1.0,1.0,2.0,3.0,72.0,0.0,0.0,0.0,0.0,29.1,75.7351143410508,4.7400996413297465,153.2215145706365
A-3387,carbonyl dichloride,InChI=1S/CCl2O/c2-1(3)4,YGYAWVDWMABLBF-UHFFFAOYSA-N,ClC(Cl)=O,-1.1608458422,0.0,1,G1,98.916,1.584,17.102,4.0,1.0,0.0,3.0,0.0,24.0,0.0,0.0,0.0,0.0,17.07,33.50730558163666,2.8030394876740514,29.019550008653873
A-3389,2-[1-(carboxymethyl)cyclohexyl]acetic acid,"InChI=1S/C10H16O4/c11-8(12)6-10(7-9(13)14)4-2-1-3-5-10/h1-7H2,(H,11,12)(H,13,14)",YQPCHPBGAALCRT-UHFFFAOYSA-N,OC(=O)CC1(CCCCC1)CC(O)=O,-1.4722340504,0.21568775308181679,3,G5,200.23399999999998,1.8863,50.02360000000003,14.0,2.0,2.0,4.0,4.0,80.0,0.0,1.0,1.0,1.0,74.6,82.92941060834939,2.6568768463463908,210.27649744866906
A-3390,strontium,InChI=1S/Sr,CIOAGBVUUVVLOB-UHFFFAOYSA-N,[Sr],-1.1139433523,0.0,1,G1,87.62,-0.3808,5.754,1.0,0.0,0.0,1.0,0.0,2.0,0.0,0.0,0.0,0.0,0.0,44.75647354469592,0.0,0.0
A-3391,(2S)-5-amino-2-[(2-aminoacetyl)amino]-5-oxopentanoic acid,"InChI=1S/C7H13N3O4/c8-3-6(12)10-4(7(13)14)1-2-5(9)11/h4H,1-3,8H2,(H2,9,11)(H,10,12)(H,13,14)/t4-/m0/s1",PNMUAGGSDZXTHX-BYPYZUCNSA-N,NC(=O)CC[C@H](NC(=O)C[NH3+])C([O-])=O,-0.194310278,0.0,1,G1,203.19799999999998,-4.271499999999999,43.12120000000001,14.0,4.0,3.0,7.0,6.0,80.0,0.0,0.0,0.0,0.0,139.96,80.43734734416999,4.089939314856037,241.08940644097603
A-3392,"3,10-diamino-2-{[6-(4-tert-butylbenzenesulfonamido)naphthalen-2-yl]sulfonyl}-6,13-dichloro-5,12-dioxa-7,14-diazapentacene-4,11-disulfonic acid lithium potassium sodium","InChI=1S/C38H29Cl2N5O12S4.K.Li.Na/c1-38(2,3)19-6-10-21(11-7-19)59(48,49)45-20-8-4-18-15-22(9-5-17(18)14-20)58(46,47)26-16-25-33(37(29(26)42)61(53,54)55)57-35-27(39)30-34(28(40)31(35)44-25)56-32-24(43-30)13-12-23(41)36(32)60(50,51)52;;;/h4-16,45H,41-42H2,1-3H3,(H,50,51,52)(H,53,54,55);;;",PDTCPVSOIVGWMZ-UHFFFAOYSA-N,[Li].[Na].[K].CC(C)(C)c1ccc(cc1)[S](=O)(=O)Nc2ccc3cc(ccc3c2)[S](=O)(=O)c4cc5N=C6C(=C7Oc8c(ccc(N)c8[S](O)(=O)=O)N=C7C(=C6Oc5c(c4N)[S](O)(=O)=O)Cl)Cl,-2.1807658975999997,0.0,1,G1,1015.8759999999997,5.707100000000003,242.19229999999985,64.0,14.0,5.0,26.0,7.0,319.0,6.0,0.0,2.0,8.0,284.27,452.9204382264367,2.5688850672843733e-06,3587.1475087527892
A-3393,(methylsulfanyl)ethane,"InChI=1S/C3H8S/c1-3-4-2/h3H2,1-2H3",WXEHBUMAEPOYKP-UHFFFAOYSA-N,CCSC,-1.0569732819,0.0,1,G1,76.164,1.3693,24.05599999999999,4.0,1.0,0.0,1.0,1.0,26.0,0.0,0.0,0.0,0.0,0.0,31.592245281988006,1.9747448713915894,5.245112497836532
A-3397,benzaldehyde,InChI=1S/C7H6O/c8-6-7-4-2-1-3-5-7/h1-6H,HUMNYLRZRPPJDN-UHFFFAOYSA-N,O=Cc1ccccc1,-1.2095723109,0.16626302559528075,3,G5,106.12399999999997,1.4990999999999999,31.829499999999992,8.0,1.0,0.0,1.0,1.0,40.0,1.0,0.0,0.0,1.0,17.07,47.95786733393734,2.9910469146846212,167.00151696675914
A-3398,2-hydroperoxy-2-(2-hydroperoxybutan-2-ylperoxy)butane,"InChI=1S/C8H18O6/c1-5-7(3,11-9)13-14-8(4,6-2)12-10/h9-10H,5-6H2,1-4H3",WFUGQJXVXHBTEM-UHFFFAOYSA-N,CCC(C)(OO)OOC(C)(CC)OO,-1.5077732457,0.0,1,G1,210.22599999999994,2.1662,46.98960000000001,14.0,6.0,2.0,6.0,7.0,86.0,0.0,0.0,0.0,0.0,77.38000000000001,83.12438019824026,4.13703891526259,133.91049395640277
A-3399,2-(methylamino)-1-phenylpropan-1-ol,"InChI=1S/C10H15NO/c1-8(11-2)10(12)9-6-4-3-5-7-9/h3-8,10-12H,1-2H3/t8-,10+/m0/s1",KWGRBVOPPLSCSI-WCBMZHEXSA-N,CN[C@@H](C)[C@@H](O)c1ccccc1,-1.4051913165,0.0,1,G1,165.236,1.3278999999999999,49.92350000000003,12.0,2.0,2.0,2.0,3.0,66.0,1.0,0.0,0.0,1.0,32.26,73.23526751288745,2.7110407232330616,222.5400055614587
A-3401,ethyl 2-methylpropanoate,"InChI=1S/C6H12O2/c1-4-8-6(7)5(2)3/h5H,4H2,1-3H3",WDAXFOBOLVPGLV-UHFFFAOYSA-N,CCOC(=O)C(C)C,-1.2554968887,0.0,1,G1,116.15999999999998,1.2055,31.470999999999982,8.0,2.0,0.0,2.0,2.0,48.0,0.0,0.0,0.0,0.0,26.3,49.83902892936323,3.329150037184473,76.59772060569361
A-3402,sulfanylidenestrontium,InChI=1S/S.Sr,XXCMBPUMZXRBTN-UHFFFAOYSA-N,S=[Sr],0.0036602887,0.0,1,G1,119.68700000000001,0.26739999999999997,13.344999999999999,2.0,1.0,0.0,2.0,0.0,8.0,0.0,0.0,0.0,0.0,0.0,44.55367974051606,2.0,2.0
A-3403,"1,3-dihydro-2-benzofuran-1,3-dione",InChI=1S/C8H4O3/c9-7-5-3-1-2-4-6(5)8(10)11-7/h1-4H,LGRFSURHDFAFJT-UHFFFAOYSA-N,O=C1OC(=O)c2ccccc12,-1.3644249332,0.18286240988145278,4,G5,148.11699999999996,0.9972,36.18800000000001,11.0,3.0,0.0,3.0,0.0,54.0,1.0,0.0,1.0,2.0,43.370000000000005,62.59204562435536,2.6946772551637395,307.9453367067098
A-3404,"(E)-1,2-dichloroethene",InChI=1S/C2H2Cl2/c3-1-2-4/h1-2H/b2-1+,KFUSEUYYWQURPO-OWOJBTEDSA-N,Cl\C=C\Cl,-1.1871803856999998,0.12760980715000003,2,G3,96.94400000000002,1.9352,20.845999999999997,4.0,0.0,0.0,2.0,0.0,24.0,0.0,0.0,0.0,0.0,0.0,35.02112256380526,2.549193338482967,19.219280948873624
A-3407,quinoline,InChI=1S/C9H7N/c1-2-6-9-8(4-1)5-3-7-10-9/h1-7H,SMWDFEZZVXVKRB-UHFFFAOYSA-N,c1ccc2ncccc2c1,-1.325093551,0.013436073199999954,2,G3,129.16199999999998,2.2348,41.743000000000016,10.0,1.0,0.0,1.0,0.0,48.0,2.0,0.0,0.0,2.0,12.89,59.33271563217868,2.8880516016579914,275.7051383449476