ID,Name,InChI,InChIKey,SMILES,Solubility,SD,Ocurrences,Group,MolWt,MolLogP,MolMR,HeavyAtomCount,NumHAcceptors,NumHDonors,NumHeteroatoms,NumRotatableBonds,NumValenceElectrons,NumAromaticRings,NumSaturatedRings,NumAliphaticRings,RingCount,TPSA,LabuteASA,BalabanJ,BertzCT,bin,is_sol
B-3624,n-hexylbenzene,"InChI=1S/C12H18/c1-2-3-4-6-9-12-10-7-5-8-11-12/h5,7-8,10-11H,2-4,6,9H2,1H3",LTEQMZWBSYACLV-UHFFFAOYSA-N,CCCCCCc1ccccc1,-5.2551,0.0225499999999998,2,G3,162.276,3.809400000000003,54.288000000000046,12.0,0.0,0.0,0.0,5.0,66.0,1.0,0.0,0.0,1.0,0.0,75.62105580587661,2.157795777203053,188.45310074746277,Low,False
B-3646,"2,3,5,6-tetrachloronitrobenzene",InChI=1S/C6HCl4NO2/c7-2-1-3(8)5(10)6(4(2)9)11(12)13/h1H,XQTLDIFVVHJORV-UHFFFAOYSA-N,[O-][N+](=O)c1c(Cl)c(Cl)cc(Cl)c1Cl,-5.0963,0.3368499999999996,2,G3,260.891,4.2084,53.13640000000001,13.0,2.0,0.0,7.0,1.0,70.0,1.0,0.0,0.0,1.0,43.14,93.29744374952344,3.5551420285916264,353.137268020069,Low,False
B-3659,"1,2,3,4-tetrachlorobenzene",InChI=1S/C6H2Cl4/c7-3-1-2-4(8)6(10)5(3)9/h1-2H,GBDZXPJXOMHESU-UHFFFAOYSA-N,Clc1ccc(Cl)c(Cl)c1Cl,-4.5619,0.1882236317669903,3,G5,215.894,4.3002,46.482000000000006,10.0,0.0,0.0,4.0,0.0,54.0,1.0,0.0,0.0,1.0,0.0,78.64446802702365,3.3421538077705124,229.16988337222983,Low,False
B-3665,trimethylamine,InChI=1S/C3H9N/c1-4(2)3/h1-3H3,GETQZCLCWQTVFV-UHFFFAOYSA-N,CN(C)C,1.1777,0.16885,2,G3,59.112,0.1777999999999999,19.611,4.0,1.0,0.0,1.0,0.0,26.0,0.0,0.0,0.0,0.0,3.24,27.228968926826138,2.3237900077244498,8.0,High,True
B-3683,diphenylamine,"InChI=1S/C12H11N/c1-3-7-11(8-4-1)13-12-9-5-2-6-10-12/h1-10,13H",DMBHHRLKUKUOEG-UHFFFAOYSA-N,N(c1ccccc1)c2ccccc2,-3.5042,0.4106099753355522,5,G5,169.227,3.430200000000002,56.16670000000003,13.0,1.0,1.0,1.0,2.0,64.0,2.0,0.0,0.0,2.0,12.03,78.03835950916904,2.1614757505786617,315.89864866417315,High,True
B-3684,p-anisaldehyde,"InChI=1S/C8H8O2/c1-10-8-4-2-7(6-9)3-5-8/h2-6H,1H3",ZRSNZINYAWTAHE-UHFFFAOYSA-N,COc1ccc(C=O)cc1,-1.5016,0.1590223124194438,3,G5,136.14999999999998,1.5076999999999998,38.38150000000001,10.0,2.0,0.0,2.0,2.0,52.0,1.0,0.0,0.0,1.0,26.3,59.43635467784082,2.895351845489354,213.20412994838864,High,True
B-3688,pentachlorophenol,InChI=1S/C6HCl5O/c7-1-2(8)4(10)6(12)5(11)3(1)9/h12H,IZUPBVBPLAPZRR-UHFFFAOYSA-N,Oc1c(Cl)c(Cl)c(Cl)c(Cl)c1Cl,-4.2793,0.2165104513771923,3,G5,266.338,4.6592,53.15680000000001,12.0,1.0,1.0,6.0,0.0,66.0,1.0,0.0,0.0,1.0,20.23,93.74196800610132,3.603567451474548,230.2032247724076,Medium,False
B-3701,"2,4-dimethylphenol","InChI=1S/C8H10O/c1-6-3-4-8(9)7(2)5-6/h3-5,9H,1-2H3",KUFFULVDNCHOFZ-UHFFFAOYSA-N,Cc1ccc(O)c(C)c1,-1.1909999999999998,0.0240174828999999,2,G3,122.167,2.00904,37.5808,9.0,1.0,1.0,1.0,0.0,48.0,1.0,0.0,0.0,1.0,20.23,54.95552110048619,3.171678030440916,215.80766205433727,High,True
B-3702,p-bromophenol,"InChI=1S/C6H5BrO/c7-5-1-3-6(8)4-2-5/h1-4,8H",GZFGOTFRPZRKDS-UHFFFAOYSA-N,Oc1ccc(Br)cc1,-1.092,0.046,2,G3,173.009,2.1547,35.80680000000001,8.0,1.0,1.0,2.0,0.0,42.0,1.0,0.0,0.0,1.0,20.23,56.09318447733433,3.0324555320336755,147.38833891467198,High,True
B-3711,p-methoxyphenol,"InChI=1S/C7H8O2/c1-9-7-4-2-6(8)3-5-7/h2-5,8H,1H3",NWVVVBRKAWDGAB-UHFFFAOYSA-N,COc1ccc(O)cc1,-0.4919,0.08905,2,G3,124.13899999999995,1.4008,34.6588,9.0,2.0,1.0,2.0,1.0,48.0,1.0,0.0,0.0,1.0,29.46,53.70412421559647,2.881555877646136,178.61256853719752,High,True
B-3713,"2,3-dichlorophenol","InChI=1S/C6H4Cl2O/c7-4-2-1-3-5(9)6(4)8/h1-3,9H",UMPSXRYVXUPCOS-UHFFFAOYSA-N,Oc1cccc(Cl)c1Cl,-1.6559,0.1779499999999999,2,G3,163.003,2.699,38.12680000000001,9.0,1.0,1.0,3.0,0.0,48.0,1.0,0.0,0.0,1.0,20.23,62.83216932545633,3.2478347337367026,202.0478870500104,High,True
B-3717,"3,5-dichlorophenol","InChI=1S/C6H4Cl2O/c7-4-1-5(8)3-6(9)2-4/h1-3,9H",VPOMSPZBQMDLTM-UHFFFAOYSA-N,Oc1cc(Cl)cc(Cl)c1,-1.5590000000000002,0.1095,2,G3,163.003,2.699,38.12680000000001,9.0,1.0,1.0,3.0,0.0,48.0,1.0,0.0,0.0,1.0,20.23,62.83216932545633,3.165670309917317,171.82006515716174,High,True
B-3718,"2,4-dibromophenol","InChI=1S/C6H4Br2O/c7-4-1-2-6(9)5(8)3-4/h1-3,9H",FAXWFCTVSHEODL-UHFFFAOYSA-N,Oc1ccc(Br)cc1Br,-2.1225,0.0212499999999999,2,G3,251.905,2.9172,43.506800000000005,9.0,1.0,1.0,3.0,0.0,48.0,1.0,0.0,0.0,1.0,20.23,69.9607320829757,3.171678030440915,222.29788705001036,High,True
B-3724,isobutyricacid,"InChI=1S/C4H8O2/c1-3(2)4(5)6/h3H,1-2H3,(H,5,6)",KQNPFQTWMSNSAP-UHFFFAOYSA-N,CC(C)C(O)=O,0.2777,0.28414149515,2,G3,88.10599999999998,0.727,22.473799999999997,6.0,1.0,1.0,2.0,1.0,36.0,0.0,0.0,0.0,0.0,37.3,36.78983322325914,3.2575861612334887,56.568425030288566,High,True
B-3728,indole-3-acetic acid,"InChI=1S/C10H9NO2/c12-10(13)5-7-6-11-9-4-2-1-3-8(7)9/h1-4,6,11H,5H2,(H,12,13)",SEOVTRFCIGRIMH-UHFFFAOYSA-N,OC(=O)Cc1c[nH]c2ccccc12,-2.0674,0.0137,2,G3,175.187,1.795,49.638500000000015,13.0,1.0,2.0,3.0,2.0,66.0,2.0,0.0,0.0,2.0,53.09,75.00786815327946,2.5139618271787234,444.8764011192855,High,True
B-3731,2-methyl-4-chlorophenoxyacetic acid,"InChI=1S/C9H9ClO3/c1-6-4-7(10)2-3-8(6)13-5-9(11)12/h2-4H,5H2,1H3,(H,11,12)",WHKUVVPPKQRRBV-UHFFFAOYSA-N,Cc1cc(Cl)ccc1OCC(O)=O,-2.503,0.1365,2,G3,200.621,2.11182,49.31980000000002,13.0,2.0,1.0,4.0,3.0,70.0,1.0,0.0,0.0,1.0,46.53,80.89879677131513,2.719441518462691,322.6358947688086,High,True
B-3739,undecanoic acid,"InChI=1S/C11H22O2/c1-2-3-4-5-6-7-8-9-10-11(12)13/h2-10H2,1H3,(H,12,13)",ZDPHROOEEOARMN-UHFFFAOYSA-N,CCCCCCCCCCC(O)=O,-3.5525,0.1262500000000002,2,G3,186.295,3.6018000000000017,54.86280000000004,13.0,1.0,1.0,2.0,9.0,78.0,0.0,0.0,0.0,0.0,37.3,81.34442802403544,2.8729187591669154,121.2586863990795,High,True
B-3742,phenoxyacetic acid,"InChI=1S/C8H8O3/c9-8(10)6-11-7-4-2-1-3-5-7/h1-5H,6H2,(H,9,10)",LCPDWSOZIOUXRV-UHFFFAOYSA-N,OC(=O)COc1ccccc1,-1.1031,0.07155,2,G3,152.149,1.15,39.57280000000002,11.0,2.0,1.0,3.0,3.0,58.0,1.0,0.0,0.0,1.0,46.53,64.23058843003683,2.453018743531937,230.35230342705083,High,True
B-3743,p-chlorophenoxyacetic acid,"InChI=1S/C8H7ClO3/c9-6-1-3-7(4-2-6)12-5-8(10)11/h1-4H,5H2,(H,10,11)",SODPIMGUZLOIPE-UHFFFAOYSA-N,OC(=O)COc1ccc(Cl)cc1,-2.29,0.0249999999999999,2,G3,186.594,1.8034,44.58280000000002,12.0,2.0,1.0,4.0,3.0,64.0,1.0,0.0,0.0,1.0,46.53,74.5338546569185,2.529889074289453,268.1363912728923,High,True
B-3745,trans-cinnamic acid,"InChI=1S/C9H8O2/c10-9(11)7-6-8-4-2-1-3-5-8/h1-7H,(H,10,11)/b7-6+",WBYWAXJHAXSJNI-VOTSOKGWSA-N,OC(=O)\C=C\c1ccccc1,-2.4335,0.0597868621763083,3,G5,148.161,1.7844,43.11180000000002,11.0,1.0,1.0,2.0,2.0,56.0,1.0,0.0,0.0,1.0,37.3,64.79238228274231,2.7217735540687813,262.1510390605948,High,True
B-3747,2-ethylhexanoic acid,"InChI=1S/C8H16O2/c1-3-5-6-7(4-2)8(9)10/h7H,3-6H2,1-2H3,(H,9,10)",OBETXYAYXDNJHR-UHFFFAOYSA-N,CCCCC(CC)C(O)=O,-1.858,0.0774396935999999,2,G3,144.21399999999997,2.2874,40.9418,10.0,1.0,1.0,2.0,5.0,60.0,0.0,0.0,0.0,0.0,37.3,62.249601680845565,3.500355906453629,99.43071362054202,High,True
B-3754,"cinnamic acid, p-methoxy-","InChI=1S/C10H10O3/c1-13-9-5-2-8(3-6-9)4-7-10(11)12/h2-7H,1H3,(H,11,12)/b7-4+",AFDXODALSZRGIH-QPJJXVBHSA-N,COc1ccc(\C=C\C(O)=O)cc1,-2.3984,0.22055,2,G3,178.18699999999998,1.793,49.663800000000016,13.0,2.0,1.0,3.0,3.0,68.0,1.0,0.0,0.0,1.0,46.53,76.27086962664579,2.7469405523531787,311.4466725353074,High,True
B-3758,"3,4-dichlorobenzoic acid","InChI=1S/C7H4Cl2O2/c8-5-2-1-4(7(10)11)3-6(5)9/h1-3H,(H,10,11)",VPHHJAOJUJHJKD-UHFFFAOYSA-N,OC(=O)c1ccc(Cl)c(Cl)c1,-3.495,0.0224999999999999,2,G3,191.013,2.6916,43.42130000000001,11.0,1.0,1.0,4.0,1.0,58.0,1.0,0.0,0.0,1.0,37.3,73.3586335398967,3.1515496683060507,296.492089776386,High,True
B-3764,2-furoic acid,"InChI=1S/C5H4O3/c6-5(7)4-2-1-3-8-4/h1-3H,(H,6,7)",SMNDYUVBFMFKNZ-UHFFFAOYSA-N,OC(=O)c1occc1,-0.4802,0.4519589130044182,3,G5,112.08399999999996,0.9778,25.6673,8.0,2.0,1.0,3.0,1.0,42.0,1.0,0.0,0.0,1.0,50.44,45.54643035021018,2.9283752374267684,175.56366915733074,High,True
B-3765,2-iodobenzoic acid,"InChI=1S/C7H5IO2/c8-6-4-2-1-3-5(6)7(9)10/h1-4H,(H,9,10)",CJNZAXGUTKBIHP-UHFFFAOYSA-N,OC(=O)c1ccccc1I,-2.7308,0.1553999999999999,2,G3,248.01899999999995,1.9894,46.11830000000001,10.0,1.0,1.0,3.0,1.0,52.0,1.0,0.0,0.0,1.0,37.3,72.01393920717697,3.1529414466808685,257.53794892648057,High,True
B-3766,2-naphthoic acid,"InChI=1S/C11H8O2/c12-11(13)10-6-5-8-3-1-2-4-9(8)7-10/h1-7H,(H,12,13)",UOBYKYZJUGYBDK-UHFFFAOYSA-N,OC(=O)c1ccc2ccccc2c1,-3.5639,0.1830500000000001,2,G3,172.183,2.5380000000000003,50.90730000000002,13.0,1.0,1.0,2.0,1.0,64.0,2.0,0.0,0.0,2.0,37.3,75.43376561786856,2.6860346638769905,460.35186173235,High,True
B-3768,m-toluic acid,"InChI=1S/C8H8O2/c1-6-3-2-4-7(5-6)8(9)10/h2-5H,1H3,(H,9,10)",GPSDUZXPYCFOSQ-UHFFFAOYSA-N,Cc1cccc(c1)C(O)=O,-2.1428,0.0336,2,G3,136.14999999999998,1.69322,38.13830000000001,10.0,1.0,1.0,2.0,1.0,52.0,1.0,0.0,0.0,1.0,37.3,59.11704320052995,3.069899265759275,253.1894333808838,High,True
B-3771,p-methoxybenzoic acid,"InChI=1S/C8H8O3/c1-11-7-4-2-6(3-5-7)8(9)10/h2-5H,1H3,(H,9,10)",ZEYHEAKUIGZSGI-UHFFFAOYSA-N,COc1ccc(cc1)C(O)=O,-2.458,0.2159999999999999,2,G3,152.14899999999997,1.3934,39.953300000000006,11.0,2.0,1.0,3.0,2.0,58.0,1.0,0.0,0.0,1.0,46.53,64.23058843003683,2.9138015626758045,250.54461008172763,High,True
B-3772,o-toluic acid,"InChI=1S/C8H8O2/c1-6-4-2-3-5-7(6)8(9)10/h2-5H,1H3,(H,9,10)",ZWLPBLYKEWSWPD-UHFFFAOYSA-N,Cc1ccccc1C(O)=O,-2.0621,0.05895,2,G3,136.14999999999998,1.69322,38.13830000000001,10.0,1.0,1.0,2.0,1.0,52.0,1.0,0.0,0.0,1.0,37.3,59.11704320052995,3.1529414466808685,253.1894333808838,High,True
B-3778,m-chlorobenzoic acid,"InChI=1S/C7H5ClO2/c8-6-3-1-2-5(4-6)7(9)10/h1-4H,(H,9,10)",LULAYUGMBFYYEX-UHFFFAOYSA-N,OC(=O)c1cccc(Cl)c1,-2.5415,0.0242499999999998,2,G3,156.56799999999998,2.0382,38.41130000000001,10.0,1.0,1.0,3.0,1.0,52.0,1.0,0.0,0.0,1.0,37.3,63.05536731301502,3.069899265759275,257.53794892648057,High,True
B-3782,m-bromobenzoic acid,"InChI=1S/C7H5BrO2/c8-6-3-1-2-5(4-6)7(9)10/h1-4H,(H,9,10)",VOIZNVUXCQLQHS-UHFFFAOYSA-N,OC(=O)c1cccc(Br)c1,-2.699,0.0855000000000001,2,G3,201.019,2.1473000000000004,41.10130000000001,10.0,1.0,1.0,3.0,1.0,52.0,1.0,0.0,0.0,1.0,37.3,66.61964869177471,3.069899265759275,257.53794892648057,High,True
B-3783,p-bromobenzoic acid,"InChI=1S/C7H5BrO2/c8-6-3-1-5(2-4-6)7(9)10/h1-4H,(H,9,10)",TUXYZHVUPGXXQG-UHFFFAOYSA-N,OC(=O)c1ccc(Br)cc1,-3.5251,0.1624499999999999,2,G3,201.019,2.1473000000000004,41.10130000000001,10.0,1.0,1.0,3.0,1.0,52.0,1.0,0.0,0.0,1.0,37.3,66.61964869177471,3.003400684579818,240.28794892648057,High,True
B-3784,3-iodobenzoic acid,"InChI=1S/C7H5IO2/c8-6-3-1-2-5(4-6)7(9)10/h1-4H,(H,9,10)",KVBWBCRPWVKFQT-UHFFFAOYSA-N,OC(=O)c1cccc(I)c1,-3.2706,0.1447,2,G3,248.019,1.9894,46.118300000000005,10.0,1.0,1.0,3.0,1.0,52.0,1.0,0.0,0.0,1.0,37.3,72.01393920717699,3.069899265759275,257.53794892648057,High,True
B-3785,4-iodobenzoic acid,"InChI=1S/C7H5IO2/c8-6-3-1-5(2-4-6)7(9)10/h1-4H,(H,9,10)",GHICCUXQJBDNRN-UHFFFAOYSA-N,OC(=O)c1ccc(I)cc1,-3.9631,0.03845,2,G3,248.019,1.9894,46.11830000000001,10.0,1.0,1.0,3.0,1.0,52.0,1.0,0.0,0.0,1.0,37.3,72.01393920717699,3.003400684579818,240.28794892648057,Medium,False
B-3792,2-butanol,"InChI=1S/C4H10O/c1-3-4(2)5/h4-5H,3H2,1-2H3",BTANRVKWQNVYAZ-UHFFFAOYSA-N,CCC(C)O,0.3877,0.0922784746026937,4,G5,74.12299999999999,0.7771999999999999,21.971799999999995,5.0,1.0,1.0,1.0,1.0,32.0,0.0,0.0,0.0,0.0,20.23,32.62831112321538,2.5395388613593908,17.609640474436812,High,True
B-3793,benzhydrol,"InChI=1S/C13H12O/c14-13(11-7-3-1-4-8-11)12-9-5-2-6-10-12/h1-10,13-14H",QILSFLSDHQAZET-UHFFFAOYSA-N,OC(c1ccccc1)c2ccccc2,-2.5494,0.0102999999999999,2,G3,184.238,2.768300000000001,56.945800000000034,14.0,1.0,1.0,1.0,2.0,70.0,2.0,0.0,0.0,2.0,20.23,83.64767319215363,2.2962461305928525,340.99502151011234,High,True
B-3794,benzyl alcohol,"InChI=1S/C7H8O/c8-6-7-4-2-1-3-5-7/h1-5,8H,6H2",WVDDGKGOMKODPV-UHFFFAOYSA-N,OCc1ccccc1,-0.4319,0.0159499999999999,2,G3,108.13999999999996,1.1789,32.364799999999995,8.0,1.0,1.0,1.0,1.0,42.0,1.0,0.0,0.0,1.0,20.23,48.59057898608958,2.8320858350070908,145.73281445033504,High,True
B-3795,cyclohexanol,"InChI=1S/C6H12O/c7-6-4-2-1-3-5-6/h6-7H,1-5H2",HPXRVTGHNJAIIH-UHFFFAOYSA-N,OC1CCCCC1,-0.3774,0.0819092516642677,3,G5,100.161,1.3114,29.091799999999985,7.0,1.0,1.0,1.0,0.0,42.0,0.0,1.0,1.0,1.0,20.23,44.35236419847938,2.1229179499593664,46.14170945007629,High,True
B-3797,1-heptanol,"InChI=1S/C7H16O/c1-2-3-4-5-6-7-8/h8H,2-7H2,1H3",BBMCTIGTTCKYKF-UHFFFAOYSA-N,CCCCCCCO,-1.8425,0.018315396935134,3,G5,116.204,1.9491,35.84479999999999,8.0,1.0,1.0,1.0,5.0,50.0,0.0,0.0,0.0,0.0,20.23,51.723137466405205,2.53006045688352,29.368065554250645,High,True
B-3801,3-phenylpropanol,"InChI=1S/C9H12O/c10-8-4-7-9-5-2-1-3-6-9/h1-3,5-6,10H,4,7-8H2",VAJVDSVGBWFCLW-UHFFFAOYSA-N,OCCCc1ccccc1,-1.3798,0.06884047255,2,G3,136.194,1.6115,41.848800000000026,10.0,1.0,1.0,1.0,3.0,54.0,1.0,0.0,0.0,1.0,20.23,61.3204632148828,2.4265223465879537,169.34295735705518,High,True
B-3804,2-octanol,"InChI=1S/C8H18O/c1-3-4-5-6-7-8(2)9/h8-9H,3-7H2,1-2H3",SJWFXCIHNDVPSH-UHFFFAOYSA-N,CCCCCCC(C)O,-2.0655,0.0397823053956837,5,G5,130.231,2.337600000000001,40.439800000000005,9.0,1.0,1.0,1.0,5.0,56.0,0.0,0.0,0.0,0.0,20.23,58.08807958080181,2.746690906857495,50.52932501298081,High,True
B-3816,2-hexanol,"InChI=1S/C6H14O/c1-3-4-5-6(2)7/h6-7H,3-5H2,1-2H3",QNVRIHYSUZMSGM-UHFFFAOYSA-N,CCCCC(C)O,-0.8726,0.0086999999999999,2,G3,102.17699999999998,1.5574,31.205799999999986,7.0,1.0,1.0,1.0,3.0,44.0,0.0,0.0,0.0,0.0,20.23,45.3581953520086,2.678257743164726,33.16125945873016,High,True
B-3824,methyl bromide,InChI=1S/CH3Br/c1-2/h1H3,GZUXJHMPEANEGY-UHFFFAOYSA-N,CBr,-0.7956,0.0372,2,G3,94.939,1.0111,14.851,2.0,0.0,0.0,1.0,0.0,14.0,0.0,0.0,0.0,0.0,0.0,22.606798633470916,1.0,2.0,High,True
B-3839,trifluoromethane,InChI=1S/CHF3/c2-1(3)4/h1H,XPDWGBQVDMORPB-UHFFFAOYSA-N,FC(F)F,-1.2334,0.3442673343,2,G3,70.013,1.1785,7.112,4.0,0.0,0.0,3.0,0.0,26.0,0.0,0.0,0.0,0.0,0.0,21.23585723660825,2.3237900077244498,8.0,High,True
B-3841,pentachloroethane,"InChI=1S/C2HCl5/c3-1(4)2(5,6)7/h1H",BNIXVQGCZULYKV-UHFFFAOYSA-N,ClC(Cl)C(Cl)(Cl)Cl,-2.6248,0.0123999999999999,2,G3,202.295,3.1603000000000003,35.784000000000006,7.0,0.0,0.0,5.0,0.0,44.0,0.0,0.0,0.0,0.0,0.0,66.62052427663451,3.541196965079901,51.5907190016011,High,True
B-3845,"1,1,2,2-tetrachloroethane",InChI=1S/C2H2Cl4/c3-1(4)2(5)6/h1-2H,QPFMBZIOSGYJDE-UHFFFAOYSA-N,ClC(Cl)C(Cl)Cl,-1.7536,0.0068,2,G3,167.85,2.5938,30.988,6.0,0.0,0.0,4.0,1.0,38.0,0.0,0.0,0.0,0.0,0.0,56.31725804975285,2.993497243478473,26.52932501298081,High,True
B-3870,piperonal,"InChI=1S/C8H6O3/c9-4-6-1-2-7-8(3-6)11-5-10-7/h1-4H,5H2",SATCULPHIDQDRE-UHFFFAOYSA-N,O=Cc1ccc2OCOc2c1,-1.6324,0.1989740635999999,2,G3,150.13299999999998,1.2278,37.95250000000001,11.0,3.0,0.0,3.0,1.0,56.0,1.0,0.0,1.0,2.0,35.53,63.54406875381847,2.483389643538051,293.3886867286258,High,True
B-3885,ethyl methacrylate,"InChI=1S/C6H10O2/c1-4-8-6(7)5(2)3/h2,4H2,1,3H3",SUPCQIBBMFXVTL-UHFFFAOYSA-N,CCOC(=O)C(C)=C,-1.3251,0.03059012245,2,G3,114.144,1.1256000000000002,31.44699999999998,8.0,2.0,0.0,2.0,2.0,46.0,0.0,0.0,0.0,0.0,26.3,49.14942589717897,3.4904530666021536,105.09616281328596,High,True
B-3886,"methacrylic acid, i-butyl ester","InChI=1S/C8H14O2/c1-6(2)5-10-8(9)7(3)4/h6H,3,5H2,1-2,4H3",RUMACXVDVNRZJZ-UHFFFAOYSA-N,CC(C)COC(=O)C(C)=C,-2.039,0.1790093162499999,2,G3,142.19799999999995,1.7617,40.611,10.0,2.0,0.0,2.0,3.0,58.0,0.0,0.0,0.0,0.0,26.3,61.87931012597219,3.502986511184309,136.1930175513852,High,True
B-3911,acetoacetic ester,"InChI=1S/C6H10O3/c1-3-9-6(8)4-5(2)7/h3-4H2,1-2H3",XYIBRDXRRQCHLP-UHFFFAOYSA-N,CCOC(=O)CC(C)=O,-0.073,0.036761801,2,G3,130.143,0.5286,31.930999999999983,9.0,3.0,0.0,3.0,3.0,52.0,0.0,0.0,0.0,0.0,43.370000000000005,54.00055102940699,3.386924951000887,117.47138037474598,High,True
B-3921,3-pentanone,"InChI=1S/C5H10O/c1-3-5(6)4-2/h3-4H2,1-2H3",FDPIMTJIUBPUKL-UHFFFAOYSA-N,CCC(=O)CC,-0.253,0.015192686918527,3,G5,86.134,1.3755,25.588999999999988,6.0,1.0,0.0,1.0,2.0,36.0,0.0,0.0,0.0,0.0,17.07,38.36054158545974,2.9881608821342693,41.90013452989013,High,True
B-3931,3-methyl-2-butanone,"InChI=1S/C5H10O/c1-4(2)5(3)6/h4H,1-3H3",SYBYTAAJFKOIEJ-UHFFFAOYSA-N,CC(C)C(C)=O,-0.1513,0.4174741462867511,3,G5,86.13399999999999,1.2314,25.518999999999988,6.0,1.0,0.0,1.0,1.0,36.0,0.0,0.0,0.0,0.0,17.07,38.360541585459735,3.2575861612334887,54.95878455585175,High,True
B-3943,butyronitrile,"InChI=1S/C4H7N/c1-2-3-4-5/h2-3H2,1H3",KVNRLNFWIYMESJ-UHFFFAOYSA-N,CCCC#N,-0.321,0.0077520328999999,2,G3,69.107,1.31008,20.520999999999997,5.0,1.0,0.0,1.0,1.0,28.0,0.0,0.0,0.0,0.0,23.79,32.226657052488086,2.483699570591265,42.09986547010987,High,True
B-3946,"2,6-dichlorobenzonitrile",InChI=1S/C7H3Cl2N/c8-6-2-1-3-7(9)5(6)4-10/h1-3H,YOYAIZYFCNQIRF-UHFFFAOYSA-N,Clc1cccc(Cl)c1C#N,-3.9803,0.12985,2,G3,172.01399999999998,2.8650800000000007,41.17700000000001,10.0,1.0,0.0,3.0,0.0,50.0,1.0,0.0,0.0,1.0,23.79,68.79545736912563,3.3427746227314072,267.89784791592245,Medium,False
B-3953,cycloheptatriene,"InChI=1S/C7H8/c1-2-4-6-7-5-3-1/h1-6H,7H2",CHVJITGCYZJHLR-UHFFFAOYSA-N,C1C=CC=CC=C1,-2.1721,0.01105,2,G3,92.14099999999998,2.0587,32.036999999999985,7.0,0.0,0.0,0.0,0.0,36.0,0.0,0.0,1.0,1.0,0.0,43.85426346412719,2.60094913922188,102.0,High,True
B-3960,"1,4-cyclohexadiene","InChI=1S/C6H8/c1-2-4-6-5-3-1/h1-2,5-6H,3-4H2",UVJHQYIOXKWHFD-UHFFFAOYSA-N,C1C=CCC=C1,-2.0587,0.04435,2,G3,80.12999999999998,1.8926,27.51399999999999,6.0,0.0,0.0,0.0,0.0,32.0,0.0,0.0,1.0,1.0,0.0,38.17892438191485,2.4,58.03910001730775,High,True
B-3981,ethylenethiourea,"InChI=1S/C3H6N2S/c6-3-4-1-2-5-3/h1-2H2,(H2,4,5,6)",PDQAZBWRQCGBEV-UHFFFAOYSA-N,S=C1NCCN1,-0.7083,0.0683805882,2,G3,102.162,-0.5359000000000003,28.6034,6.0,1.0,2.0,3.0,0.0,34.0,0.0,1.0,1.0,1.0,24.06,41.9218087175145,2.3673518510178746,63.19344939991072,High,True
B-3995,1-methylnaphthalene,"InChI=1S/C11H10/c1-9-5-4-7-10-6-2-3-8-11(9)10/h2-8H,1H3",QPUYECUOLPXSFR-UHFFFAOYSA-N,Cc1cccc2ccccc12,-3.7413,0.0233770542769327,3,G5,142.201,3.148220000000002,48.68500000000003,11.0,0.0,0.0,0.0,0.0,54.0,2.0,0.0,0.0,2.0,0.0,66.47800976562876,2.9131611636048604,369.2000235425419,Medium,False
B-3996,1-chloronaphthalene,InChI=1S/C10H7Cl/c11-10-7-3-5-8-4-1-2-6-9(8)10/h1-7H,JTPNRXUCIXHOKM-UHFFFAOYSA-N,Clc1cccc2ccccc12,-3.9706,0.0202999999999999,2,G3,162.61899999999997,3.4932000000000016,48.95800000000003,11.0,0.0,0.0,1.0,0.0,54.0,2.0,0.0,0.0,2.0,0.0,70.41633387811383,2.9131611636048604,374.03449039867854,Medium,False
B-4008,"2,6-dimethylnaphthalene","InChI=1S/C12H12/c1-9-3-5-12-8-10(2)4-6-11(12)7-9/h3-8H,1-2H3",YGYNBBAUIYTWBF-UHFFFAOYSA-N,Cc1ccc2cc(C)ccc2c1,-4.8927,0.0936500000000002,2,G3,156.228,3.456640000000002,53.42200000000003,12.0,0.0,0.0,0.0,0.0,60.0,2.0,0.0,0.0,2.0,0.0,72.84295188002538,2.786653081405114,372.057866193448,Low,False
B-4016,dibenzo-p-dioxin,InChI=1S/C12H8O2/c1-2-6-10-9(5-1)13-11-7-3-4-8-12(11)14-10/h1-8H,NFBOHOGPQUYFRF-UHFFFAOYSA-N,O1c2ccccc2Oc3ccccc13,-5.3106,0.0146999999999999,2,G3,184.194,3.584600000000001,53.032000000000025,14.0,2.0,0.0,2.0,0.0,68.0,2.0,0.0,1.0,3.0,18.46,81.70975663104552,2.124918321677156,389.7528748573925,Low,False
B-4018,2-chlorodibenzo-p-dioxin,InChI=1S/C12H7ClO2/c13-8-5-6-11-12(7-8)15-10-4-2-1-3-9(10)14-11/h1-7H,GIUGGRUEPHPVNR-UHFFFAOYSA-N,Clc1ccc2Oc3ccccc3Oc2c1,-5.8359,0.0170500000000002,2,G3,218.639,4.238000000000001,58.04200000000003,15.0,2.0,0.0,3.0,0.0,74.0,2.0,0.0,1.0,3.0,18.46,92.01302285792718,2.108606050374169,522.7806108146203,Low,False
B-4019,2-nitrotoluene,"InChI=1S/C7H7NO2/c1-6-4-2-3-5-7(6)8(9)10/h2-5H,1H3",PLAZTCDQAHEYBI-UHFFFAOYSA-N,Cc1ccccc1[N+]([O-])=O,-2.3243,0.084830663535087,3,G5,137.138,1.90322,37.83340000000001,10.0,2.0,0.0,3.0,1.0,52.0,1.0,0.0,0.0,1.0,43.14,58.44932095639337,3.1529414466808685,257.53794892648057,High,True
B-4024,"1,3-dinitrobenzene",InChI=1S/C6H4N2O4/c9-7(10)5-2-1-3-6(4-5)8(11)12/h1-4H,WDCYWAQPCXBPJA-UHFFFAOYSA-N,[O-][N+](=O)c1cccc(c1)[N+]([O-])=O,-2.4989,0.1044499999999999,2,G3,168.10799999999995,1.503,39.75080000000001,12.0,4.0,0.0,6.0,2.0,62.0,1.0,0.0,0.0,1.0,86.28,66.73735456449656,3.121805775248301,306.8248996548373,High,True