ID,Name,InChI,InChIKey,SMILES,Solubility,SD,Ocurrences,Group,MolWt,MolLogP,MolMR,HeavyAtomCount,NumHAcceptors,NumHDonors,NumHeteroatoms,NumRotatableBonds,NumValenceElectrons,NumAromaticRings,NumSaturatedRings,NumAliphaticRings,RingCount,TPSA,LabuteASA,BalabanJ,BertzCT,bin,is_sol
B-1176,dl-tyrosine,"InChI=1S/C9H11NO3/c10-8(9(12)13)5-6-1-3-7(11)4-2-6/h1-4,8,11H,5,10H2,(H,12,13)",OUYCCCASQSFEME-UHFFFAOYSA-N,NC(Cc1ccc(O)cc1)C(O)=O,-2.6561,0.2072273796461269,4,G5,181.191,0.3466,47.42200000000002,13.0,3.0,3.0,4.0,3.0,70.0,1.0,0.0,0.0,1.0,83.55000000000001,75.6161097641353,2.641763904889644,294.23305328030176,High,True
B-1184,methyl propyl ether,"InChI=1S/C4H10O/c1-3-4-5-2/h3-4H2,1-2H3",VNKYTQGIUYNRMY-UHFFFAOYSA-N,CCCOC,-0.3857,0.30215,2,G3,74.12299999999999,1.0428,22.166999999999994,5.0,1.0,0.0,1.0,2.0,32.0,0.0,0.0,0.0,0.0,9.23,32.94762260052625,2.19060968716425,11.119415478763749,High,True
B-1196,ethion,"InChI=1S/C9H22O4P2S4/c1-5-10-14(16,11-6-2)18-9-19-15(17,12-7-3)13-8-4/h5-9H2,1-4H3",RIZMRRKBZQXFOY-UHFFFAOYSA-N,CCO[P](=S)(OCC)SCS[P](=S)(OCC)OCC,-5.2838,0.1280999999999998,2,G3,384.4870000000002,5.005300000000004,95.12300000000003,19.0,8.0,0.0,10.0,12.0,116.0,0.0,0.0,0.0,0.0,36.92,134.44287384816894,4.359571541268355,279.3414689864336,Low,False
B-1207,3-methylpentan-2-one,"InChI=1S/C6H12O/c1-4-5(2)6(3)7/h5H,4H2,1-3H3",UIHCLUNTQKBZGK-UHFFFAOYSA-N,CCC(C)C(C)=O,-0.6805,0.0052499999999999,2,G3,100.161,1.6215,30.13599999999998,7.0,1.0,0.0,1.0,2.0,42.0,0.0,0.0,0.0,0.0,17.07,44.72548369985635,3.34341705895396,66.58027134782354,High,True
B-1210,"propanoic acid, 3-amino-2-hydroxy-","InChI=1S/C3H7NO3/c4-1-2(5)3(6)7/h2,5H,1,4H2,(H,6,7)",BMYNFMYTOJXKLE-UHFFFAOYSA-N,NCC(O)C(O)=O,-0.8229,0.007,2,G3,105.093,-1.6094000000000002,22.697,7.0,3.0,3.0,4.0,2.0,42.0,0.0,0.0,0.0,0.0,83.55000000000001,40.55901555807127,3.34341705895396,72.58027134782354,High,True
B-1212,"2,3,4-trimethylpentane","InChI=1S/C8H18/c1-6(2)8(5)7(3)4/h6-8H,1-5H3",RLPGDEORIPLBNF-UHFFFAOYSA-N,CC(C)C(C)C(C)C,-4.6961,0.0519499999999997,2,G3,114.232,2.9345000000000017,38.84,8.0,0.0,0.0,0.0,2.0,50.0,0.0,0.0,0.0,0.0,0.0,53.29384582860579,3.464226847231096,45.05865002596162,Low,False
B-1216,meconin,"InChI=1S/C10H10O4/c1-12-7-4-3-6-5-14-10(11)8(6)9(7)13-2/h3-4H,5H2,1-2H3",ORFFGRQMMWVHIB-UHFFFAOYSA-N,COc1ccc2COC(=O)c2c1OC,-1.8903,0.00515,2,G3,194.186,1.3742,48.66550000000002,14.0,4.0,0.0,4.0,2.0,74.0,1.0,0.0,1.0,2.0,44.760000000000005,81.38749821211856,2.625252291498254,383.9535426242286,High,True
B-1229,chlorazine,"InChI=1S/C11H20ClN5/c1-5-16(6-2)10-13-9(12)14-11(15-10)17(7-3)8-4/h5-8H2,1-4H3",QHXDTLYEHWXDSO-UHFFFAOYSA-N,CCN(CC)c1nc(Cl)nc(n1)N(CC)CC,-4.4112,0.0243999999999999,2,G3,257.76899999999995,2.2174,71.95900000000005,17.0,5.0,0.0,6.0,6.0,96.0,1.0,0.0,0.0,1.0,45.150000000000006,107.83281754479778,3.083535018710021,319.4650689235082,Medium,False
B-1233,potassium oxalate,"InChI=1S/C2H2O4.2K/c3-1(4)2(5)6;;/h(H,3,4)(H,5,6);;/q;2*+1/p-2",IRXRGVFLQOSHOH-UHFFFAOYSA-L,[K+].[K+].[O-]C(=O)C([O-])=O,0.1773,0.09765923295,2,G3,166.21399999999997,-9.5058,10.014,8.0,4.0,0.0,6.0,0.0,34.0,0.0,0.0,0.0,0.0,80.25999999999999,130.8608342374309,-1.249999955000002e-07,78.03910001730776,High,True
B-1240,"1-propene-1,2,3-tricarboxylic acid, (z)-","InChI=1S/C6H6O6/c7-4(8)1-3(6(11)12)2-5(9)10/h1H,2H2,(H,7,8)(H,9,10)(H,11,12)/b3-1+",GTZCVFVGUGFEME-HNQUOIGGSA-N,OC(=O)C\C(=C/C(O)=O)C(O)=O,0.3612,0.0483999999999999,2,G3,174.10799999999998,-0.4433000000000001,35.60739999999999,12.0,3.0,3.0,6.0,4.0,66.0,0.0,0.0,0.0,0.0,111.9,66.74162612434765,4.552105266699234,250.7639251168273,High,True
B-1250,m-chlorophenoxyacetic acid,"InChI=1S/C8H7ClO3/c9-6-2-1-3-7(4-6)12-5-8(10)11/h1-4H,5H2,(H,10,11)",XSBUXVWJQVTYLC-UHFFFAOYSA-N,OC(=O)COc1cccc(Cl)c1,-2.1954,0.1476999999999999,2,G3,186.594,1.8034,44.58280000000002,12.0,2.0,1.0,4.0,3.0,64.0,1.0,0.0,0.0,1.0,46.53,74.5338546569185,2.5749361542074807,285.3863912728923,High,True
B-1251,stilbene,InChI=1S/C14H12/c1-3-7-13(8-4-1)11-12-14-9-5-2-6-10-14/h1-12H/b12-11+,PJANXHGTPQOBST-VAWYXSNFSA-N,c1ccc(cc1)\C=C\c2ccccc2,-5.7905,0.0697499999999999,2,G3,180.25,3.857000000000003,61.81200000000003,14.0,0.0,0.0,0.0,2.0,68.0,2.0,0.0,0.0,2.0,0.0,84.52877852216996,2.159341417811232,357.0681482751901,Low,False
B-1262,potassium formate,"InChI=1S/CH2O2.K/c2-1-3;/h1H,(H,2,3);/q;+1/p-1",WFIZEGIEIOHZCP-UHFFFAOYSA-M,[K+].[O-]C=O,0.9288,0.0731632753499999,2,G3,84.115,-4.629899999999999,6.064,4.0,2.0,0.0,3.0,0.0,18.0,0.0,0.0,0.0,0.0,40.13,66.6175715754319,0.0,13.509775004326936,High,True
B-1274,2-heptene,"InChI=1S/C7H14/c1-3-5-7-6-4-2/h3,5H,4,6-7H2,1-2H3/b5-3+",OTTZHAVKAVGASB-HWKANZROSA-N,CCCC\C=C\C,-3.816,0.0068999999999999,2,G3,98.18899999999998,2.752700000000001,34.33899999999999,7.0,0.0,0.0,0.0,3.0,42.0,0.0,0.0,0.0,0.0,0.0,46.23930068202494,2.689157411839952,44.0,Medium,False
B-1275,n-butylformate,"InChI=1S/C5H10O2/c1-2-3-4-7-5-6/h5H,2-4H2,1H3",NMJJFJNHVMGPGM-UHFFFAOYSA-N,CCCCOC=O,-1.1307,0.11965,2,G3,102.13299999999998,0.9595,26.923999999999985,7.0,2.0,0.0,2.0,4.0,42.0,0.0,0.0,0.0,0.0,26.3,43.47408681496663,2.558780869327957,43.34481288877288,High,True
B-1284,"2,3-dimethyl-3-pentanol","InChI=1S/C7H16O/c1-5-7(4,8)6(2)3/h6,8H,5H2,1-4H3",RFZHJHSNHYIRNE-UHFFFAOYSA-N,CCC(C)(O)C(C)C,-0.8504,0.1847999999999999,2,G3,116.20399999999997,1.8034,35.75279999999999,8.0,1.0,1.0,1.0,2.0,50.0,0.0,0.0,0.0,0.0,20.23,51.723137466405205,3.708324167474306,64.78707744334403,High,True
B-1312,3-nitrophthalic acid,"InChI=1S/C8H5NO6/c10-7(11)4-2-1-3-5(9(14)15)6(4)8(12)13/h1-3H,(H,10,11)(H,12,13)",KFIRODWJCYBBHY-UHFFFAOYSA-N,OC(=O)c1cccc(c1C(O)=O)[N+]([O-])=O,-1.0214,0.0057,2,G3,211.129,0.9912,47.01499999999999,15.0,4.0,2.0,7.0,3.0,78.0,1.0,0.0,0.0,1.0,117.74,82.72577477526953,3.55594512931231,420.1951582999609,High,True
B-1316,"benzoic acid, 2-benzoyl-, methyl ester","InChI=1S/C15H12O3/c1-18-15(17)13-10-6-5-9-12(13)14(16)11-7-3-2-4-8-11/h2-10H,1H3",NQSMEZJWJJVYOI-UHFFFAOYSA-N,COC(=O)c1ccccc1C(=O)c2ccccc2,-3.4776,0.1513133466480771,3,G5,240.258,2.704200000000001,67.65600000000003,18.0,3.0,0.0,3.0,3.0,90.0,2.0,0.0,0.0,2.0,43.370000000000005,105.01991309834524,2.458399254450608,573.3024023359151,High,True
B-1320,"1,2,3-tribromobenzene",InChI=1S/C6H3Br3/c7-4-2-1-3-5(8)6(4)9/h1-3H,GMVJKSNPLYBFSO-UHFFFAOYSA-N,Brc1cccc(Br)c1Br,-5.0402,0.0149000000000003,2,G3,314.802,3.9741,49.542,9.0,0.0,0.0,3.0,0.0,48.0,1.0,0.0,0.0,1.0,0.0,79.03404593642105,3.2478347337367026,199.2929995478469,Low,False
B-1342,"1,2,4-tribromobenzene",InChI=1S/C6H3Br3/c7-4-1-2-5(8)6(9)3-4/h1-3H,FWAJPSIPOULHHH-UHFFFAOYSA-N,Brc1ccc(Br)c(Br)c1,-4.808,0.1549999999999998,2,G3,314.802,3.974100000000001,49.54200000000001,9.0,0.0,0.0,3.0,0.0,48.0,1.0,0.0,0.0,1.0,0.0,79.03404593642107,3.171678030440916,219.54299954784685,Low,False
B-1343,dl-norleucine,"InChI=1S/C6H13NO2/c1-2-3-4-5(7)6(8)9/h5H,2-4,7H2,1H3,(H,8,9)",LRQKBLKVPFOOQJ-UHFFFAOYSA-N,CCCCC(N)C(O)=O,-1.0453,0.00785,2,G3,131.17499999999998,0.5884999999999998,35.13619999999998,9.0,2.0,2.0,3.0,4.0,54.0,0.0,0.0,0.0,0.0,63.32,54.85960814906508,3.2659073992264416,93.05865002596164,High,True
B-1352,2-methyl-3-hexanol,"InChI=1S/C7H16O/c1-4-5-7(8)6(2)3/h6-8H,4-5H2,1-3H3",RGRUUTLDBCWYBL-UHFFFAOYSA-N,CCCC(O)C(C)C,-1.3093,0.00535,2,G3,116.20399999999998,1.8034,35.75279999999999,8.0,1.0,1.0,1.0,3.0,50.0,0.0,0.0,0.0,0.0,20.23,51.723137466405205,3.170819357347939,50.34851554559677,High,True
B-1362,p-cyanobenzoic acid,"InChI=1S/C8H5NO2/c9-5-6-1-3-7(4-2-6)8(10)11/h1-4H,(H,10,11)",ADCUEPOHPCPMCE-UHFFFAOYSA-N,OC(=O)c1ccc(cc1)C#N,-2.0885,0.0807500000000001,2,G3,147.13299999999998,1.2564799999999998,38.11630000000001,11.0,2.0,1.0,3.0,1.0,54.0,1.0,0.0,0.0,1.0,61.09,63.50962288199867,3.0316389681074445,307.8590974511937,High,True
B-1378,methyl valerate,"InChI=1S/C6H12O2/c1-3-4-5-6(7)8-2/h3-5H2,1-2H3",HNBDRPTVWVGKBR-UHFFFAOYSA-N,CCCCC(=O)OC,-1.3606,0.0809016607074381,3,G5,116.15999999999998,1.3496,31.540999999999983,8.0,2.0,0.0,2.0,3.0,48.0,0.0,0.0,0.0,0.0,26.3,49.83902892936323,2.988598647973156,68.92878689342031,High,True
B-1384,"3,3-dimethyl-1-butanol","InChI=1S/C6H14O/c1-6(2,3)4-5-7/h7H,4-5H2,1-3H3",DUXCSEISVMREAX-UHFFFAOYSA-N,CC(C)(C)CCO,-1.1308,0.3154,2,G3,102.177,1.4149,31.15779999999998,7.0,1.0,1.0,1.0,1.0,44.0,0.0,0.0,0.0,0.0,20.23,45.35819535200859,3.154490065368808,42.63193444574935,High,True
B-1385,"2,4-dimethyl-2-pentanol","InChI=1S/C7H16O/c1-6(2)5-7(3,4)8/h6,8H,5H2,1-4H3",FMLSQAUAAGVTJO-UHFFFAOYSA-N,CC(C)CC(C)(C)O,-0.9307,0.0173640113133137,3,G5,116.20399999999998,1.8034,35.75279999999999,8.0,1.0,1.0,1.0,2.0,50.0,0.0,0.0,0.0,0.0,20.23,51.7231374664052,3.388924101358251,59.277302439017085,High,True
B-1393,ethyl isopropyl ether,"InChI=1S/C5H12O/c1-4-6-5(2)3/h5H,4H2,1-3H3",XSJVWZAETSBXKU-UHFFFAOYSA-N,CCOC(C)C,-0.5607,0.0053499999999999,2,G3,88.15,1.4313,26.761999999999983,6.0,1.0,0.0,1.0,2.0,38.0,0.0,0.0,0.0,0.0,9.23,39.31256471492286,2.6272148478988635,25.11941547876375,High,True
B-1395,3-chloroiodobenzene,InChI=1S/C6H4ClI/c7-5-2-1-3-6(8)4-5/h1-4H,JMLWXCJXOYDXRN-UHFFFAOYSA-N,Clc1cccc(I)c1,-3.55,0.0089999999999998,2,G3,238.455,2.9446000000000003,44.16900000000001,8.0,0.0,0.0,2.0,0.0,42.0,1.0,0.0,0.0,1.0,0.0,66.99650746742228,3.077660437970554,168.38833891467198,High,True
B-1403,4-methyl-1-pentanol,"InChI=1S/C6H14O/c1-6(2)4-3-5-7/h6-7H,3-5H2,1-2H3",PCWGTDULNUVNBN-UHFFFAOYSA-N,CC(C)CCCO,-1.1286,0.0056999999999999,2,G3,102.177,1.4149,31.15779999999998,7.0,1.0,1.0,1.0,3.0,44.0,0.0,0.0,0.0,0.0,20.23,45.35819535200859,2.6782577431647265,33.16125945873016,High,True
B-1413,"hexanedioic acid, dimethyl ester","InChI=1S/C8H14O4/c1-11-7(9)5-3-4-6-8(10)12-2/h3-6H2,1-2H3",UDSFAEKRVUSQDD-UHFFFAOYSA-N,COC(=O)CCCCC(=O)OC,-1.4629,0.3795041006701314,4,G5,174.196,0.8927999999999998,42.500000000000014,12.0,4.0,0.0,4.0,5.0,70.0,0.0,0.0,0.0,0.0,52.60000000000001,71.8439804877071,3.211729783466108,135.13685006057713,High,True
B-1415,ethyl propyl ether,"InChI=1S/C5H12O/c1-3-5-6-4-2/h3-5H2,1-2H3",NVJUHMXYKCUMQA-UHFFFAOYSA-N,CCCOCC,-0.6806,0.0827826605569601,3,G5,88.14999999999999,1.4329,26.78399999999999,6.0,1.0,0.0,1.0,3.0,38.0,0.0,0.0,0.0,0.0,9.23,39.31256471492286,2.3390923149762908,15.900134529890124,High,True
B-1424,1-pentadecanol,"InChI=1S/C15H32O/c1-2-3-4-5-6-7-8-9-10-11-12-13-14-15-16/h16H,2-15H2,1H3",REIUXOLGHVXAEO-UHFFFAOYSA-N,CCCCCCCCCCCCCCCO,-6.3476,0.0312000000000001,2,G3,228.41999999999996,5.069900000000006,72.78080000000006,16.0,1.0,1.0,1.0,13.0,98.0,0.0,0.0,0.0,0.0,20.23,102.6426743815781,2.828262412638549,98.00257888348511,Low,False
B-1425,hexacosane,"InChI=1S/C26H54/c1-3-5-7-9-11-13-15-17-19-21-23-25-26-24-22-20-18-16-14-12-10-8-6-4-2/h3-26H2,1-2H3",HMSWAIKSFDFLKN-UHFFFAOYSA-N,CCCCCCCCCCCCCCCCCCCCCCCCCC,-8.3339,0.0080499999999998,2,G3,366.7180000000002,10.388599999999991,122.15600000000012,26.0,0.0,0.0,0.0,23.0,158.0,0.0,0.0,0.0,0.0,0.0,167.86280388774483,2.94691201256248,196.0782000346156,Low,False
B-1427,"1,1,1,2-tetrachloroethane","InChI=1S/C2H2Cl4/c3-1-2(4,5)6/h1H2",QVLAWKAXOMEXPM-UHFFFAOYSA-N,ClCC(Cl)(Cl)Cl,-2.1955,0.0077499999999999,2,G3,167.85,2.5954000000000006,31.01,6.0,0.0,0.0,4.0,0.0,38.0,0.0,0.0,0.0,0.0,0.0,56.31725804975285,3.168489872670569,35.30296890880646,High,True
B-1444,ethyl t-butyl ether,"InChI=1S/C6H14O/c1-5-7-6(2,3)4/h5H2,1-4H3",NUMQCACRALPSHD-UHFFFAOYSA-N,CCOC(C)(C)C,-0.9302,0.3522024006499999,2,G3,102.177,1.8214,31.37899999999998,7.0,1.0,0.0,1.0,1.0,44.0,0.0,0.0,0.0,0.0,9.23,45.67750682931947,3.154490065368808,42.63193444574935,High,True
B-1468,4-methyl-1-pentene,"InChI=1S/C6H12/c1-4-5-6(2)3/h4,6H,1,5H2,2-3H3",WSSSPWUEQFSQQG-UHFFFAOYSA-N,CC(C)CC=C,-3.2439,0.0742308341999997,2,G3,84.16199999999999,2.2185,29.651999999999983,6.0,0.0,0.0,0.0,2.0,36.0,0.0,0.0,0.0,0.0,0.0,39.874358567628335,2.8141442217770303,35.302968908806456,High,True
B-1516,4-penten-1-ol,"InChI=1S/C5H10O/c1-2-3-4-5-6/h2,6H,1,3-5H2",LQAVWYMTUMSFBE-UHFFFAOYSA-N,OCCCC=C,-0.1793,0.0146499999999999,2,G3,86.134,0.9449,26.51679999999999,6.0,1.0,1.0,1.0,3.0,36.0,0.0,0.0,0.0,0.0,20.23,38.303650205427736,2.4884037718761123,32.919684538544,High,True
B-1550,3-hexyne,"InChI=1S/C6H10/c1-3-5-6-4-2/h3-4H2,1-2H3",DQQNMIPXXNPGCV-UHFFFAOYSA-N,CCC#CCC,-2.1675,0.08875,2,G3,82.14599999999999,1.8098,28.357999999999983,6.0,0.0,0.0,0.0,0.0,34.0,0.0,0.0,0.0,0.0,0.0,39.56318699167186,2.8986676180251862,53.84283310353014,High,True
B-1569,medrogestone,"InChI=1S/C23H32O2/c1-14-12-17-18(21(3)9-6-16(25)13-20(14)21)7-11-23(5)19(17)8-10-22(23,4)15(2)24/h12-13,17-19H,6-11H2,1-5H3",HCFSGRMEEXUOSS-UHFFFAOYSA-N,CC(=O)C1(C)CCC2C3C=C(C)C4=CC(=O)CCC4(C)C3CCC12C,-5.2721,0.0389499999999998,2,G3,340.5070000000001,5.279700000000005,100.02100000000006,25.0,2.0,0.0,2.0,1.0,136.0,0.0,2.0,4.0,4.0,34.14,151.68849106615704,1.7971692588605246,713.6044349377288,Low,False
B-1582,desmetryne,"InChI=1S/C8H15N5S/c1-5(2)10-7-11-6(9-3)12-8(13-7)14-4/h5H,1-4H3,(H2,9,10,11,12,13)",HCRWJJJUKUVORR-UHFFFAOYSA-N,CNc1nc(NC(C)C)nc(SC)n1,-2.5656,0.0078,2,G3,213.31,1.4555,59.91340000000002,14.0,6.0,2.0,6.0,4.0,78.0,1.0,0.0,0.0,1.0,62.73,88.13789202690086,2.9200182242358266,279.53315486014867,High,True
B-1585,heptachlor epoxide,"InChI=1S/C10H5Cl7O/c11-3-1-2(4-5(3)18-4)9(15)7(13)6(12)8(1,14)10(9,16)17/h1-5H",ZXFXBSWRVIQKOD-UHFFFAOYSA-N,ClC1C2OC2C3C1C4(Cl)C(=C(Cl)C3(Cl)C4(Cl)Cl)Cl,-6.2893,0.1264625460583313,3,G5,389.32,4.452700000000001,75.61900000000001,18.0,1.0,0.0,8.0,0.0,100.0,0.0,3.0,4.0,4.0,12.53,138.5472112287764,2.0104948353898764,476.4546632923554,Low,False
B-1608,"pentanedioic acid, dimethyl ester","InChI=1S/C7H12O4/c1-10-6(8)4-3-5-7(9)11-2/h3-5H2,1-2H3",XTDYIOOONNVFMA-UHFFFAOYSA-N,COC(=O)CCCC(=O)OC,-0.4337,0.0145754475499999,2,G3,160.169,0.5026999999999999,37.883,11.0,4.0,0.0,4.0,4.0,64.0,0.0,0.0,0.0,0.0,52.60000000000001,65.47903837331049,3.270375394587324,125.3759999531186,High,True
B-1621,p-cyclohexylphenol,"InChI=1S/C12H16O/c13-12-8-6-11(7-9-12)10-4-2-1-3-5-10/h6-10,13H,1-5H2",OAHMVZYHIJQTQC-UHFFFAOYSA-N,Oc1ccc(cc1)C2CCCCC2,-3.468,0.3039447931999999,2,G3,176.25899999999993,3.439900000000001,53.93280000000004,13.0,1.0,1.0,1.0,1.0,70.0,1.0,1.0,1.0,2.0,20.23,79.40945840454341,2.100180418908758,256.95789509358224,High,True
B-1628,"butanedioic acid, 2,3-diethyl-","InChI=1S/C8H14O4/c1-3-5(7(9)10)6(4-2)8(11)12/h5-6H,3-4H2,1-2H3,(H,9,10)(H,11,12)",KJXMXCRSMLOXBM-UHFFFAOYSA-N,CCC(C(CC)C(O)=O)C(O)=O,-0.8608,0.29745,2,G3,174.196,1.208,42.8336,12.0,2.0,2.0,4.0,5.0,70.0,0.0,0.0,0.0,0.0,74.6,71.20535753308536,4.437883201238692,155.89667380414838,High,True
B-1642,galaxolide,"InChI=1S/C18H26O/c1-11-9-19-10-13-7-15-16(8-14(11)13)18(5,6)12(2)17(15,3)4/h7-8,11-12H,9-10H2,1-6H3",ONKNPOPIGWHAQC-UHFFFAOYSA-N,CC1COCc2cc3c(cc12)C(C)(C)C(C)C3(C)C,-5.1693,0.0538640750940969,5,G5,258.405,4.525200000000004,79.72900000000006,19.0,1.0,0.0,1.0,0.0,104.0,1.0,0.0,2.0,3.0,9.23,116.91259141470466,2.2452818094358897,524.7369751653058,Low,False
B-1677,2-methyl-4-chlorophenol,"InChI=1S/C7H7ClO/c1-5-4-6(8)2-3-7(5)9/h2-4,9H,1H3",RHPUJHQBPORFGV-UHFFFAOYSA-N,Cc1cc(Cl)ccc1O,-1.5519999999999998,0.12017300195,2,G3,142.585,2.3540200000000007,37.853800000000014,9.0,1.0,1.0,2.0,0.0,48.0,1.0,0.0,0.0,1.0,20.23,58.89384521297126,3.171678030440916,220.15617759993404,High,True
B-1687,atratone,"InChI=1S/C9H17N5O/c1-5-10-7-12-8(11-6(2)3)14-9(13-7)15-4/h6H,5H2,1-4H3,(H2,10,11,12,13,14)",PXWUKZGIHQRDHL-UHFFFAOYSA-N,CCNc1nc(NC(C)C)nc(OC)n1,-2.0696,0.018316719745146,3,G5,211.269,1.1322999999999996,59.30140000000003,15.0,6.0,2.0,6.0,5.0,84.0,1.0,0.0,0.0,1.0,71.96000000000001,89.49326934543909,2.89174703245098,315.37105540415854,High,True
B-1708,chloridazon,"InChI=1S/C10H8ClN3O/c11-9-8(12)6-13-14(10(9)15)7-4-2-1-3-5-7/h1-6H,12H2",WYKYKTKDBLFHCY-UHFFFAOYSA-N,NC1=C(Cl)C(=O)N(N=C1)c2ccccc2,-2.7436,0.0632000000000001,2,G3,221.647,1.4680999999999995,59.256400000000006,15.0,4.0,1.0,5.0,1.0,76.0,2.0,0.0,0.0,2.0,60.91,90.91089736639223,2.6602820094110218,536.1089189358535,High,True
B-1709,"3,6-dichloropicolinic acid","InChI=1S/C6H3Cl2NO2/c7-3-1-2-4(8)9-5(3)6(10)11/h1-2H,(H,10,11)",HUBANNPOLNYSAD-UHFFFAOYSA-N,OC(=O)c1nc(Cl)ccc1Cl,-1.3884,0.4457999999999998,2,G3,192.00100000000003,2.0866,41.2163,11.0,2.0,1.0,5.0,1.0,58.0,1.0,0.0,0.0,1.0,50.19,72.57828152084319,3.232208870305491,300.6337992264624,High,True
B-1718,"thiocyanic acid, ammonium salt",InChI=1S/CHNS.H3N/c2-1-3;/h3H;1H3,SOIFLUNRINLCBN-UHFFFAOYSA-N,[NH4+].[S-]C#N,0.9178,0.1003391997,2,G3,76.12400000000001,0.3905799999999999,18.962800000000005,4.0,2.0,1.0,3.0,0.0,24.0,0.0,0.0,0.0,0.0,60.29,30.422647736646606,0.0,27.509775004326936,High,True
B-1725,"1,4-dichloronaphthalene",InChI=1S/C10H6Cl2/c11-9-5-6-10(12)8-4-2-1-3-7(8)9/h1-6H,JDPKCYMVSKDOGS-UHFFFAOYSA-N,Clc1ccc(Cl)c2ccccc12,-5.3576,0.2212,2,G3,197.064,4.146600000000002,53.96800000000002,12.0,0.0,0.0,2.0,0.0,60.0,2.0,0.0,0.0,2.0,0.0,80.71960010499551,2.946471324842402,380.60813525322834,Low,False
B-1746,"2-furancarboxaldehyde, 5-(methoxymethyl)-","InChI=1S/C7H8O3/c1-9-5-7-3-2-6(4-8)10-7/h2-4H,5H2,1H3",ASHVULSQMDWKFO-UHFFFAOYSA-N,COCc1oc(C=O)cc1,-0.4992,0.23824786295,2,G3,140.13799999999998,1.2385,34.8085,10.0,3.0,0.0,3.0,3.0,54.0,1.0,0.0,0.0,1.0,39.44,58.59562605631426,2.677365428803547,214.38072508108667,High,True
B-1748,picloram,"InChI=1S/C6H3Cl3N2O2/c7-1-3(10)2(8)5(9)11-4(1)6(12)13/h(H2,10,11)(H,12,13)",NQQVFXUMIDALNH-UHFFFAOYSA-N,Nc1c(Cl)c(Cl)nc(C(O)=O)c1Cl,-2.7494,0.0097,2,G3,241.461,2.3222,50.63869999999999,13.0,3.0,2.0,7.0,1.0,70.0,1.0,0.0,0.0,1.0,76.21000000000001,88.22143844473759,3.497381360537993,380.6323805179055,High,True
B-1787,methiocarb,"InChI=1S/C11H15NO2S/c1-7-5-9(14-11(13)12-3)6-8(2)10(7)15-4/h5-6H,1-4H3,(H,12,13)",YFBPRJGDJKVWAH-UHFFFAOYSA-N,CNC(=O)Oc1cc(C)c(SC)c(C)c1,-3.9214,0.2157999999999997,2,G3,225.313,2.743540000000001,62.78070000000003,15.0,3.0,1.0,4.0,2.0,82.0,1.0,0.0,0.0,1.0,38.33,94.20415323000393,2.980889961781368,353.8458253198426,Medium,False
B-1791,diethyl pimelate,"InChI=1S/C11H20O4/c1-3-14-10(12)8-6-5-7-9-11(13)15-4-2/h3-9H2,1-2H3",LKKOGZVQGQUVHF-UHFFFAOYSA-N,CCOC(=O)CCCCCC(=O)OCC,-2.0408,0.0139,2,G3,216.277,2.0631,56.35100000000004,15.0,4.0,0.0,4.0,8.0,88.0,0.0,0.0,0.0,0.0,52.60000000000001,90.93880683089694,3.241244851575438,169.02694288582546,High,True
B-1797,"dl-allothreonine, o-methyl-","InChI=1S/C5H11NO3/c1-3(9-2)4(6)5(7)8/h3-4H,6H2,1-2H3,(H,7,8)",FYCWLJLGIAUCCL-UHFFFAOYSA-N,COC(C)C(N)C(O)=O,0.4853,0.0063,2,G3,133.147,-0.5668000000000002,32.08219999999999,9.0,3.0,2.0,4.0,3.0,54.0,0.0,0.0,0.0,0.0,72.55000000000001,53.60821126417535,3.716136771182721,104.37622970804894,High,True
B-1818,"1,2-dimethylcyclohexane (cis)","InChI=1S/C8H16/c1-7-5-3-4-6-8(7)2/h7-8H,3-6H2,1-2H3/t7-,8+",KVZJLSYJROEPSQ-OCAPTIKFSA-N,C[C@H]1CCCC[C@H]1C,-4.2719,0.4999499999999999,2,G3,112.216,2.832600000000001,36.79599999999999,8.0,0.0,0.0,0.0,0.0,48.0,0.0,1.0,1.0,1.0,0.0,52.28801467507656,2.2794002709583667,56.43856189774725,Medium,False
B-1837,5-phenylpentanoic acid,"InChI=1S/C11H14O2/c12-11(13)9-5-4-8-10-6-2-1-3-7-10/h1-3,6-7H,4-5,8-9H2,(H,12,13)",BYHDDXPKOZIZRV-UHFFFAOYSA-N,OC(=O)CCCCc1ccccc1,-2.4657,0.23285,2,G3,178.23100000000002,2.484000000000001,51.63280000000003,13.0,1.0,1.0,2.0,5.0,70.0,1.0,0.0,0.0,1.0,37.3,78.2118695437198,2.168624668395278,254.05260581186823,High,True
B-1848,phosalone,"InChI=1S/C12H15ClNO4PS2/c1-3-16-19(20,17-4-2)21-8-14-10-6-5-9(13)7-11(10)18-12(14)15/h5-7H,3-4,8H2,1-2H3",IOUNQDKNJZEDEP-UHFFFAOYSA-N,CCO[P](=S)(OCC)SCN1C(=O)Oc2cc(Cl)ccc12,-5.0813,0.0758499999999999,2,G3,367.8160000000001,4.236100000000003,90.61200000000002,21.0,7.0,0.0,9.0,7.0,116.0,2.0,0.0,0.0,2.0,53.6,136.01855823434258,2.2526661246596325,719.6059926791268,Low,False
B-1875,"pteridine, 2-methyl-","InChI=1S/C7H6N4/c1-5-10-4-6-7(11-5)9-3-2-8-6/h2-4H,1H3",BIGRRCHSUAXSEE-UHFFFAOYSA-N,Cc1ncc2nccnc2n1,-0.1191,0.1726839180571125,3,G5,146.153,0.7282199999999999,39.865000000000016,11.0,4.0,0.0,4.0,0.0,54.0,2.0,0.0,0.0,2.0,51.56,63.35660168941482,2.828901215620696,384.85228689314886,High,True