ID,Name,InChI,InChIKey,SMILES,Solubility,SD,Ocurrences,Group,MolWt,MolLogP,MolMR,HeavyAtomCount,NumHAcceptors,NumHDonors,NumHeteroatoms,NumRotatableBonds,NumValenceElectrons,NumAromaticRings,NumSaturatedRings,NumAliphaticRings,RingCount,TPSA,LabuteASA,BalabanJ,BertzCT,bin,is_sol
A-1855,"1,2,3-trimethylbenzene; 1H-indene; 2,3-dihydro-1H-indene","InChI=1S/C9H10.C9H8.C9H12/c2*1-2-5-9-7-3-6-8(9)4-1;1-7-5-4-6-8(2)9(7)3/h1-2,4-5H,3,6-7H2;1-6H,7H2;4-6H,1-3H3",KDEGXTBNBBKAJX-UHFFFAOYSA-N,Cc1cccc(C)c1C.C2Cc3ccccc3C2.C4C=Cc5ccccc45,-3.51623781,0.1205160330000001,2,G3,354.53700000000003,7.043060000000007,118.30000000000004,27.0,0.0,0.0,0.0,0.0,138.0,3.0,0.0,2.0,5.0,0.0,164.14046752901024,1.1680555470767107e-07,863.3117033513096,High,True
A-1857,benzyl 4-hydroxybenzoate,"InChI=1S/C14H12O3/c15-13-8-6-12(7-9-13)14(16)17-10-11-4-2-1-3-5-11/h1-9,15H,10H2",MOZDKDIOPSPTBH-UHFFFAOYSA-N,Oc1ccc(cc1)C(=O)OCc2ccccc2,-3.3249813225,0.0167118777500001,2,G3,228.247,2.749200000000001,63.66830000000004,17.0,3.0,1.0,3.0,3.0,86.0,2.0,0.0,0.0,2.0,46.53,99.28768263610088,1.9594054671723933,488.6355887837592,High,True
A-1861,"(3E)-4-(2,6,6-trimethylcyclohex-2-en-1-yl)but-3-en-2-one","InChI=1S/C13H20O/c1-10-6-5-9-13(3,4)12(10)8-7-11(2)14/h6-8,12H,5,9H2,1-4H3/b8-7+",UZFLPKAIBPNNCA-BQYQJAHWSA-N,CC(=O)/C=C/C1C(=CCCC1(C)C)C,-3.2586779358,0.28837706305,2,G3,192.302,3.5141000000000027,60.08300000000004,14.0,1.0,0.0,1.0,2.0,78.0,0.0,0.0,1.0,1.0,17.07,86.89504128273487,2.862289603243217,281.6106883094834,High,True
A-1863,ethyl formate,"InChI=1S/C3H6O2/c1-2-5-3-4/h3H,2H2,1H3",WBJINCZRORDGAQ-UHFFFAOYSA-N,CCOC=O,0.1514941879,0.03761429775,2,G3,74.07900000000001,0.1793,17.689999999999998,5.0,2.0,0.0,2.0,2.0,30.0,0.0,0.0,0.0,0.0,26.3,30.744202586173408,2.4017152226171965,26.07403392114697,High,True
A-1879,"6-ethoxy-2,2,4-trimethyl-1,2-dihydroquinoline","InChI=1S/C14H19NO/c1-5-16-11-6-7-13-12(8-11)10(2)9-14(3,4)15-13/h6-9,15H,5H2,1-4H3",DECIPOUIJURFOJ-UHFFFAOYSA-N,CCOc1ccc2NC(C)(C)C=C(C)c2c1,-3.332762335,0.1741387773002963,4,G5,217.312,3.692700000000002,68.96370000000003,16.0,2.0,1.0,2.0,2.0,86.0,1.0,0.0,1.0,2.0,21.26,97.31891326207126,2.41526997546782,432.36152386019273,High,True
A-1881,nonanal,"InChI=1S/C9H18O/c1-2-3-4-5-6-7-8-9-10/h9H,2-8H2,1H3",GYHFUZHODSMOHU-UHFFFAOYSA-N,CCCCCCCCC=O,-3.1487064763,0.0166756510619023,3,G5,142.242,2.935900000000001,44.057000000000016,10.0,1.0,0.0,1.0,7.0,60.0,0.0,0.0,0.0,0.0,17.07,63.82031004304618,2.703789901245323,69.12851783364005,High,True
A-1892,"butane-1,4-diol","InChI=1S/C4H10O2/c5-3-1-2-4-6/h5-6H,1-4H2",WERYXYBDKMZEQL-UHFFFAOYSA-N,OCCCCO,1.0451691789,0.5,2,G3,90.122,-0.2488,23.405599999999996,6.0,2.0,2.0,2.0,3.0,38.0,0.0,0.0,0.0,0.0,40.46,37.4225448754114,2.3390923149762908,17.509775004326936,High,True
A-1896,"propane-1,2,3-triol","InChI=1S/C3H8O3/c4-1-3(6)2-5/h3-6H,1-2H2",PEDCQBHIVMGVHV-UHFFFAOYSA-N,OCC(O)CO,1.0357686635,0.1463451390233452,3,G5,92.094,-1.6681,20.1784,6.0,3.0,3.0,3.0,2.0,38.0,0.0,0.0,0.0,0.0,60.69,35.851836513210806,2.7541847860376616,25.219280948873624,High,True
A-1907,2-hydroxy-5-nitrobenzoic acid,"InChI=1S/C7H5NO5/c9-6-2-1-4(8(12)13)3-5(6)7(10)11/h1-3,9H,(H,10,11)",PPDRLQLKHRZIJC-UHFFFAOYSA-N,OC(=O)c1cc(ccc1O)[N+]([O-])=O,-2.2627334080000003,0.1073350824999999,2,G3,183.119,0.9986,41.72050000000001,13.0,4.0,2.0,6.0,2.0,68.0,1.0,0.0,0.0,1.0,100.67,72.19931056082916,3.267052212361692,373.1456930998828,High,True
A-1921,sodium dodecylbenzenesulfonate,"InChI=1S/C18H30O3S.Na/c1-2-3-4-5-6-7-8-9-10-14-17-21-22(19,20)18-15-12-11-13-16-18;/h11-13,15-16H,2-10,14,17H2,1H3;",GVGUFUZHNYFZLC-UHFFFAOYSA-N,[Na].CCCCCCCCCCCCO[S](=O)(=O)c1ccccc1,-3.543437239,0.4515449935,2,G3,349.492,4.932000000000005,97.17780000000008,23.0,3.0,0.0,5.0,13.0,127.0,1.0,0.0,0.0,1.0,43.370000000000005,164.1720556023197,4.839993903808018e-06,474.2998820159188,High,True
A-1940,"5-chloro-2-(2,4-dichlorophenoxy)phenol","InChI=1S/C12H7Cl3O2/c13-7-1-3-11(9(15)5-7)17-12-4-2-8(14)6-10(12)16/h1-6,16H",XEFQLINVKFYRCS-UHFFFAOYSA-N,Oc1cc(Cl)ccc1Oc2ccc(Cl)cc2Cl,-4.4617160697000005,0.1012439511075662,4,G5,289.545,5.144700000000002,69.65280000000003,17.0,2.0,1.0,5.0,2.0,88.0,2.0,0.0,0.0,2.0,29.46,113.3060749879089,2.3122378354877973,505.9421592432012,Medium,False
A-1946,magnesium(2+) ion dihydroxide,InChI=1S/Mg.2H2O/h;2*1H2/q+2;;/p-2,VTHJTEIRLNZDEV-UHFFFAOYSA-L,[OH-].[OH-].[Mg++],-4.4691448782,0.3017536095888779,4,G5,58.319,-0.7343999999999999,9.6256,3.0,2.0,0.0,3.0,0.0,16.0,0.0,0.0,0.0,0.0,60.0,34.59988042482873,-0.0,2.754887502163468,Medium,False
A-1953,dodecan-1-ol,"InChI=1S/C12H26O/c1-2-3-4-5-6-7-8-9-10-11-12-13/h13H,2-12H2,1H3",LQZZUXJYWNFBMV-UHFFFAOYSA-N,CCCCCCCCCCCCO,-4.9847464515,0.225952116136843,4,G5,186.339,3.899600000000004,58.92980000000006,13.0,1.0,1.0,1.0,10.0,80.0,0.0,0.0,0.0,0.0,20.23,83.54784803838828,2.758149818433293,71.19366193720087,Low,False
A-1959,"(3aR,5aS,9aS,9bR)-3a,6,6,9a-tetramethyl-dodecahydronaphtho[2,1-b]furan","InChI=1S/C16H28O/c1-14(2)8-5-9-15(3)12(14)6-10-16(4)13(15)7-11-17-16/h12-13H,5-11H2,1-4H3/t12-,13+,15-,16+/m0/s1",YPZUZOLGGMJZJO-LQKXBSAESA-N,CC1(C)CCC[C@@]2(C)[C@H]1CC[C@@]3(C)OCC[C@H]23,-5.0994877858,0.2591169200999998,2,G3,236.39899999999997,4.408000000000004,70.92700000000006,17.0,1.0,0.0,1.0,0.0,98.0,0.0,3.0,3.0,3.0,9.23,106.30943451269786,1.9773447987737445,317.4868683012557,Low,False
A-1963,dilanthanum(3+) ion tricarbonate,"InChI=1S/3CH2O3.2La/c3*2-1(3)4;;/h3*(H2,2,3,4);;/q;;;2*+3/p-6",NZPIUJUFIFZSPW-UHFFFAOYSA-H,[La+3].[La+3].[O-]C([O-])=O.[O-]C([O-])=O.[O-]C([O-])=O,-5.3958921156,0.0822236389500004,2,G3,457.8360000000003,-7.341000000000001,16.188,14.0,9.0,0.0,11.0,0.0,72.0,0.0,0.0,0.0,0.0,189.57,132.9381735056008,-2.699999991e-08,115.6067314326046,Low,False
A-1973,"(1,3-benzothiazol-2-ylsulfanyl)(tert-butyl)amine","InChI=1S/C11H14N2S2/c1-11(2,3)13-15-10-12-8-6-4-5-7-9(8)14-10/h4-7,13H,1-3H3",IUJLOAKJZQBENM-UHFFFAOYSA-N,CC(C)(C)NSc1sc2ccccc2n1,-5.136722389,0.1202746241499999,2,G3,238.38100000000003,3.691500000000002,68.36570000000003,15.0,4.0,1.0,4.0,2.0,80.0,2.0,0.0,0.0,2.0,24.92,98.2411970797784,2.156268970061197,423.80101539281736,Low,False
A-1994,2-(2-{2-[(2-ethylhexanoyl)oxy]ethoxy}ethoxy)ethyl 2-ethylhexanoate,"InChI=1S/C22H42O6/c1-5-9-11-19(7-3)21(23)27-17-15-25-13-14-26-16-18-28-22(24)20(8-4)12-10-6-2/h19-20H,5-18H2,1-4H3",FRQDZJMEHSJOPU-UHFFFAOYSA-N,CCCCC(CC)C(=O)OCCOCCOCCOC(=O)C(CC)CCCC,-5.4201521344,0.0537823202500002,2,G3,402.5720000000002,4.538800000000004,110.16800000000008,28.0,6.0,0.0,6.0,19.0,166.0,0.0,0.0,0.0,0.0,71.06,171.18026054827345,3.5670471683942484,349.22326730711194,Low,False
A-1995,"2-hydroxy-1-{1-[4-(2-hydroxy-2-methylpropanoyl)phenyl]-1,3,3-trimethyl-2,3-dihydro-1H-inden-5-yl}-2-methylpropan-1-one; 2-hydroxy-1-{3-[4-(2-hydroxy-2-methylpropanoyl)phenyl]-1,1,3-trimethyl-2,3-dihydro-1H-inden-5-yl}-2-methylpropan-1-one; 2-hydroxy-2-methyl-1-[4-(prop-1-en-2-yl)phenyl]propan-1-one","InChI=1S/2C26H32O4.C13H16O2/c1-23(2)15-26(7,18-11-8-16(9-12-18)21(27)24(3,4)29)19-13-10-17(14-20(19)23)22(28)25(5,6)30;1-23(2)15-26(7,18-11-8-16(9-12-18)21(27)24(3,4)29)20-14-17(10-13-19(20)23)22(28)25(5,6)30;1-9(2)10-5-7-11(8-6-10)12(14)13(3,4)15/h2*8-14,29-30H,15H2,1-7H3;5-8,15H,1H2,2-4H3",UKDKXXBYNYCFSX-UHFFFAOYSA-N,CC(=C)c1ccc(cc1)C(=O)C(C)(C)O.CC(C)(O)C(=O)c2ccc(cc2)C3(C)CC(C)(C)c4cc(ccc34)C(=O)C(C)(C)O.CC(C)(O)C(=O)c5ccc(cc5)C6(C)CC(C)(C)c7ccc(cc67)C(=O)C(C)(C)O,-5.8273288792,0.1476388333999998,2,G3,1021.3449999999998,11.835499999999987,298.2534999999999,75.0,10.0,5.0,10.0,13.0,400.0,5.0,0.0,2.0,7.0,186.5,444.5219301766488,2.2017592036490598e-07,3007.615867390725,Low,False
A-2001,1-(4-methoxyphenyl)-2-[(3-methoxyphenyl)sulfanyl]ethan-1-one,"InChI=1S/C16H16O3S/c1-18-13-8-6-12(7-9-13)16(17)11-20-15-5-3-4-14(10-15)19-2/h3-10H,11H2,1-2H3",CXSKVBXJDSVPKS-UHFFFAOYSA-N,COc1ccc(cc1)C(=O)CSc2cccc(OC)c2,-5.284725265,0.0489835065465192,4,G5,288.368,3.6788000000000025,81.04250000000005,20.0,4.0,0.0,4.0,6.0,104.0,2.0,0.0,0.0,2.0,35.53,122.4599883675702,1.9651932716462863,578.530785639665,Low,False
A-2013,digadolinium(3+) ion trioxalate,"InChI=1S/3C2H2O4.2Gd/c3*3-1(4)2(5)6;;/h3*(H,3,4)(H,5,6);;/q;;;2*+3/p-6",SQORATIMOBOFKR-UHFFFAOYSA-H,[Gd+3].[Gd+3].[O-]C(=O)C([O-])=O.[O-]C(=O)C([O-])=O.[O-]C(=O)C([O-])=O,-5.648400548200001,0.3302053143352448,6,G5,578.5540000000003,-10.5414,30.041999999999994,20.0,12.0,0.0,14.0,0.0,112.0,0.0,0.0,0.0,0.0,240.78,172.6811203229811,-5.3571428295918366e-08,281.0851869626513,Low,False
A-2022,calcium 3-hydroxy-4-[(E)-2-(4-methyl-2-sulfonatophenyl)diazen-1-yl]naphthalene-2-carboxylate,"InChI=1S/C18H14N2O6S.Ca/c1-10-6-7-14(15(8-10)27(24,25)26)19-20-16-12-5-3-2-4-11(12)9-13(17(16)21)18(22)23;/h2-9,19H,1H3,(H,22,23)(H,24,25,26);/q;+2/p-2/b20-16-;",WANIKCLUTOABTP-LRZQPWDCSA-L,[Ca++].Cc1ccc(N\N=C\2C(=O)C(=Cc3ccccc23)C([O-])=O)c(c1)[S]([O-])(=O)=O,-5.5486422223,0.1901056208499998,2,G3,424.4470000000002,0.0505199999999999,99.48890000000002,28.0,8.0,1.0,10.0,4.0,138.0,2.0,0.0,1.0,3.0,138.79,190.2597184734787,2.8033304522669224e-06,1138.5148745463796,Low,False
A-2026,"2,2-dimethylpropane-1,3-diyl dibenzoate","InChI=1S/C19H20O4/c1-19(2,13-22-17(20)15-9-5-3-6-10-15)14-23-18(21)16-11-7-4-8-12-16/h3-12H,13-14H2,1-2H3",DYJIIMFHSZKBDY-UHFFFAOYSA-N,CC(C)(COC(=O)c1ccccc1)COC(=O)c2ccccc2,-5.4227803586,0.0094017819000002,2,G3,312.365,3.726600000000003,87.23000000000005,23.0,4.0,0.0,4.0,6.0,120.0,2.0,0.0,0.0,2.0,52.6,135.59322678543856,1.823626740336025,590.0845347710139,Low,False
A-2037,9H-carbazole,"InChI=1S/C12H9N/c1-3-7-11-9(5-1)10-6-2-4-8-12(10)13-11/h1-8,13H",UJOBWOGCFQCDNV-UHFFFAOYSA-N,[nH]1c2ccccc2c3ccccc13,-5.2104276195,0.1288503563082886,3,G5,167.21099999999998,3.3211000000000013,55.804700000000025,13.0,0.0,1.0,1.0,0.0,62.0,3.0,0.0,0.0,3.0,15.79,76.00389260398168,2.642438259907001,512.8841359099093,Low,False
A-2039,"1,2-dicyclohexyl benzene-1,2-dicarboxylate","InChI=1S/C20H26O4/c21-19(23-15-9-3-1-4-10-15)17-13-7-8-14-18(17)20(22)24-16-11-5-2-6-12-16/h7-8,13-16H,1-6,9-12H2",VOWAEIGWURALJQ-UHFFFAOYSA-N,O=C(OC1CCCCC1)c2ccccc2C(=O)OC3CCCCC3,-5.5126055421,0.2978027710500002,2,G3,330.4240000000002,4.665600000000004,91.01900000000006,24.0,4.0,0.0,4.0,4.0,130.0,1.0,2.0,2.0,3.0,52.60000000000001,143.07906507309238,1.6657948843748238,517.7565100703199,Low,False
A-2045,2-phenylethyl (2E)-3-phenylprop-2-enoate,"InChI=1S/C17H16O2/c18-17(12-11-15-7-3-1-4-8-15)19-14-13-16-9-5-2-6-10-16/h1-12H,13-14H2/b12-11+",MJQVZIANGRDJBT-VAWYXSNFSA-N,O=C(OCCc1ccccc1)/C=C/c2ccccc2,-5.4019396274,0.14074915555,2,G3,252.313,3.4857000000000022,76.58100000000005,19.0,2.0,0.0,2.0,5.0,96.0,2.0,0.0,0.0,2.0,26.3,112.89867219491045,1.7467859348215091,529.7032274575292,Low,False
A-2049,"bis(1,2,2,6,6-pentamethylpiperidin-4-yl) 2-butyl-2-[(3,5-di-tert-butyl-4-hydroxyphenyl)methyl]propanedioate","InChI=1S/C42H72N2O5/c1-18-19-20-42(34(46)48-29-24-38(8,9)43(16)39(10,11)25-29,35(47)49-30-26-40(12,13)44(17)41(14,15)27-30)23-28-21-31(36(2,3)4)33(45)32(22-28)37(5,6)7/h21-22,29-30,45H,18-20,23-27H2,1-17H3",FLPKSBDJMLUTEX-UHFFFAOYSA-N,CCCCC(Cc1cc(c(O)c(c1)C(C)(C)C)C(C)(C)C)(C(=O)OC2CC(C)(C)N(C)C(C)(C)C2)C(=O)OC3CC(C)(C)N(C)C(C)(C)C3,-5.8357203688,0.1505149978500002,2,G3,685.047,9.095500000000005,201.2387999999992,49.0,7.0,1.0,7.0,9.0,280.0,1.0,2.0,2.0,3.0,79.31,299.4216926824204,2.1998993907087105,1232.7553186607138,Low,False
A-2053,2-bromo-N-[4-chloro-2-(2-fluorobenzoyl)phenyl]acetamide,"InChI=1S/C15H10BrClFNO2/c16-8-14(20)19-13-6-5-9(17)7-11(13)15(21)10-3-1-2-4-12(10)18/h1-7H,8H2,(H,19,20)",WUZSFIKFFXBHMB-UHFFFAOYSA-N,Fc1ccccc1C(=O)c2cc(Cl)ccc2NC(=O)CBr,-5.5693457861,0.0075190873999999,2,G3,370.6050000000001,4.043500000000002,83.7082,21.0,2.0,1.0,6.0,4.0,108.0,2.0,0.0,0.0,2.0,46.17,133.79257928789568,2.468304659305612,705.8230148514472,Low,False
A-2087,"2,6-di-tert-butyl-4-methylphenol","InChI=1S/C15H24O/c1-10-8-11(14(2,3)4)13(16)12(9-10)15(5,6)7/h8-9,16H,1-7H3",NLZUEZXRPGMBCV-UHFFFAOYSA-N,Cc1cc(c(O)c(c1)C(C)(C)C)C(C)(C)C,-5.462311288,0.159617263549796,5,G5,220.356,4.295620000000003,70.24380000000005,16.0,1.0,1.0,1.0,0.0,90.0,1.0,0.0,0.0,1.0,20.23,99.51011590126242,3.507848337934589,353.8715828475769,Low,False
A-2097,(5Z)-cyclohexadec-5-en-1-one,"InChI=1S/C16H28O/c17-16-14-12-10-8-6-4-2-1-3-5-7-9-11-13-15-16/h6,8H,1-5,7,9-15H2/b8-6-",ABRIMXGLNHCLIP-VURMDHGXSA-N,O=C1CCCCCCCCCC\C=C/CCC1,-5.560732278400001,0.2440583195000001,2,G3,236.39899999999997,5.196600000000005,74.16800000000005,17.0,1.0,0.0,1.0,0.0,98.0,0.0,0.0,1.0,1.0,17.07,106.67947065810895,2.187739377081556,217.5650683358713,Low,False
A-2100,1-methyl-4-(propan-2-yl)cyclohexane,"InChI=1S/C10H20/c1-8(2)10-6-4-9(3)5-7-10/h8-10H,4-7H2,1-3H3",CFJYNSNXFXLKNS-UHFFFAOYSA-N,CC1CCC(CC1)C(C)C,-5.3545731075,0.1726134462499997,2,G3,140.26999999999998,3.468700000000003,45.96000000000002,10.0,0.0,0.0,0.0,1.0,60.0,0.0,1.0,1.0,1.0,0.0,65.01789890386979,2.259902596224093,86.2114326716684,Low,False
A-2104,(2R)-heptan-2-yl 2-[(5-chloroquinolin-8-yl)oxy]acetate (2S)-heptan-2-yl 2-[(5-chloroquinolin-8-yl)oxy]acetate,"InChI=1S/C18H22ClNO3/c1-3-4-5-7-13(2)23-17(21)12-22-16-10-9-15(19)14-8-6-11-20-18(14)16/h6,8-11,13H,3-5,7,12H2,1-2H3",COYBRKAVBMYYSF-UHFFFAOYSA-N,CCCCCC(C)OC(=O)COc1ccc(Cl)c2cccnc12,-5.7479695323,0.0859871628120714,4,G5,335.8310000000001,4.779000000000004,91.94400000000006,23.0,4.0,0.0,5.0,8.0,124.0,2.0,0.0,0.0,2.0,48.42,141.30907344768733,1.908833851857749,659.7567984804331,Low,False
A-2122,"(1-methylethyl)-1,1'-biphenyl","InChI=1S/C15H16/c1-12(2)13-8-10-15(11-9-13)14-6-4-3-5-7-14/h3-12H,1-2H3",KWSHGRJUSUJPQD-UHFFFAOYSA-N,CC(C)c1ccc(cc1)c2ccccc2,-5.609857774299999,0.1391421917977879,3,G5,196.293,4.477000000000004,65.96700000000004,15.0,0.0,0.0,0.0,2.0,76.0,2.0,0.0,0.0,2.0,0.0,91.58332366875082,2.3212483183989283,409.55111534016135,Low,False
A-2143,"3,3,4,4,5,5,6,6,7,7,8,8,8-tridecafluorooctyl 2-methylprop-2-enoate","InChI=1S/C12H9F13O2/c1-5(2)6(26)27-4-3-7(13,14)8(15,16)9(17,18)10(19,20)11(21,22)12(23,24)25/h1,3-4H2,2H3",CDXFIRXEAJABAZ-UHFFFAOYSA-N,CC(=C)C(=O)OCCC(F)(F)C(F)(F)C(F)(F)C(F)(F)C(F)(F)C(F)(F)F,-6.058168845700001,0.4771212547499996,2,G3,432.17599999999993,5.234600000000002,61.18,27.0,2.0,0.0,15.0,8.0,160.0,0.0,0.0,0.0,0.0,26.3,141.49103882159966,5.8047502879384645,576.3343060906911,Low,False
A-2147,tetradecan-1-ol,"InChI=1S/C14H30O/c1-2-3-4-5-6-7-8-9-10-11-12-13-14-15/h15H,2-14H2,1H3",HLZKNKRTKFSKGZ-UHFFFAOYSA-N,CCCCCCCCCCCCCCO,-5.787142557,0.3016184953459265,7,G5,214.39299999999997,4.679800000000005,68.16380000000005,15.0,1.0,1.0,1.0,12.0,92.0,0.0,0.0,0.0,0.0,20.23,96.2777322671815,2.8079257388805243,89.51182269698971,Low,False
A-2149,diphenyl 4-(propan-2-yl)phenyl phosphate phenyl bis[4-(propan-2-yl)phenyl] phosphate triphenyl phosphate tris[4-(propan-2-yl)phenyl] phosphate,"InChI=1S/C27H33O4P/c1-19(2)22-7-13-25(14-8-22)29-32(28,30-26-15-9-23(10-16-26)20(3)4)31-27-17-11-24(12-18-27)21(5)6/h7-21H,1-6H3",ANVREEJNGJMLOV-UHFFFAOYSA-N,CC(C)c1ccc(O[P](=O)(Oc2ccc(cc2)C(C)C)Oc3ccc(cc3)C(C)C)cc1,-6.1371343954,0.0230760621999994,2,G3,452.5310000000002,8.701700000000004,131.08350000000002,32.0,4.0,0.0,5.0,9.0,170.0,3.0,0.0,0.0,3.0,44.760000000000005,191.72031692419023,1.8665041806686111,899.8212602767087,Low,False
A-2151,"N-(1,3-benzothiazol-2-ylsulfanyl)cyclohexanamine","InChI=1S/C13H16N2S2/c1-2-6-10(7-3-1)15-17-13-14-11-8-4-5-9-12(11)16-13/h4-5,8-10,15H,1-3,6-7H2",DEQZTKGFXNUBJL-UHFFFAOYSA-N,C1CCC(CC1)NSc2sc3ccccc3n2,-5.9171426801,0.1234849867844242,3,G5,264.41900000000004,4.225700000000003,75.48570000000004,17.0,4.0,1.0,4.0,3.0,90.0,2.0,1.0,1.0,3.0,24.92,109.96525015504238,1.6372019750951292,455.88004875061137,Low,False
A-2154,"3-[(7Z)-pentadec-7-en-1-yl]phenol; 3-[(7Z,10Z)-pentadeca-7,10,14-trien-1-yl]phenol; 3-[(7Z,10Z)-pentadeca-7,10-dien-1-yl]phenol; 3-pentadecylphenol","InChI=1S/C21H36O.C21H34O.C21H32O.C21H30O/c4*1-2-3-4-5-6-7-8-9-10-11-12-13-14-16-20-17-15-18-21(22)19-20/h15,17-19,22H,2-14,16H2,1H3;8-9,15,17-19,22H,2-7,10-14,16H2,1H3;5-6,8-9,15,17-19,22H,2-4,7,10-14,16H2,1H3;2,5-6,8-9,15,17-19,22H,1,3-4,7,10-14,16H2/b;9-8-;2*6-5-,9-8-",BQLBNJKYLGWYQM-ZWUGTYOTSA-N,CCCCCCCCCCCCCCCc1cccc(O)c1.CCCCCCC\C=C/CCCCCCc2cccc(O)c2.CCCC/C=C\C\C=C/CCCCCCc3cccc(O)c3.Oc4cccc(CCCCCC\C=C/C/C=C\CCC=C)c4,-6.5970388257,0.2437198757500005,2,G3,1205.976,26.759600000000063,389.45920000000166,88.0,4.0,4.0,4.0,51.0,492.0,4.0,0.0,0.0,4.0,80.92,542.5560228777515,5.866666548398991e-07,2280.0125966889395,Low,False
A-2175,(2R)-2-ethylhexyl (2E)-3-(4-methoxyphenyl)prop-2-enoate (2S)-2-ethylhexyl (2E)-3-(4-methoxyphenyl)prop-2-enoate,"InChI=1S/2C18H26O3/c2*1-4-6-7-15(5-2)14-21-18(19)13-10-16-8-11-17(20-3)12-9-16/h2*8-13,15H,4-7,14H2,1-3H3/b2*13-10+/t2*15-/m10/s1",AKRXZXNNMQZCSA-IVGCKTBMSA-N,CCCC[C@H](CC)COC(=O)/C=C/c1ccc(OC)cc1.CCCC[C@@H](CC)COC(=O)/C=C/c2ccc(OC)cc2,-6.4216084134,0.3648194120499997,2,G3,580.8060000000004,8.936000000000005,172.5859999999995,42.0,6.0,0.0,6.0,18.0,232.0,2.0,0.0,0.0,2.0,71.06,253.65095827835535,4.199999808428581e-07,954.0631804451048,Low,False
A-2178,2-dodecyloxirane,"InChI=1S/C14H28O/c1-2-3-4-5-6-7-8-9-10-11-12-14-13-15-14/h14H,2-13H2,1H3",IOHJQSFEAYDZGF-UHFFFAOYSA-N,CCCCCCCCCCCCC1CO1,-5.9846848009,0.3217263382499999,2,G3,212.37699999999995,4.696200000000004,66.20100000000006,15.0,1.0,0.0,1.0,11.0,90.0,0.0,1.0,1.0,1.0,12.53,95.59121259096314,1.6182570532012817,129.30039002532132,Low,False
A-2188,bis(8-methylnonyl) phenyl phosphite,"InChI=1S/C26H47O3P/c1-24(2)18-12-7-5-9-16-22-27-30(29-26-20-14-11-15-21-26)28-23-17-10-6-8-13-19-25(3)4/h11,14-15,20-21,24-25H,5-10,12-13,16-19,22-23H2,1-4H3",SXXILWLQSQDLDL-UHFFFAOYSA-N,CC(C)CCCCCCCOP(OCCCCCCCC(C)C)Oc1ccccc1,-6.382029914199999,0.3217805640499995,2,G3,438.6330000000002,9.3187,130.97400000000005,30.0,3.0,0.0,4.0,20.0,174.0,1.0,0.0,0.0,1.0,27.69,187.83057725120472,2.1678707463877176,454.4268691113173,Low,False
A-2190,oxotitanium; sulfuric acid,"InChI=1S/H2O4S.O.Ti/c1-5(2,3)4;;/h(H2,1,2,3,4);;",ZYPJORZNHDXKSD-UHFFFAOYSA-N,O[S](O)(=O)=O.O=[Ti],-5.9613942775,0.1022239954224851,3,G5,161.94499999999996,-0.7740999999999998,14.8639,7.0,3.0,2.0,7.0,0.0,42.0,0.0,0.0,0.0,0.0,91.67,52.02806713260095,0.0,102.04184397996642,Low,False
A-2201,"2,6-dimethyl naphthalene-2,6-dicarboxylate","InChI=1S/C14H12O4/c1-17-13(15)11-5-3-10-8-12(14(16)18-2)6-4-9(10)7-11/h3-8H,1-2H3",GYUVMLBYMPKZAZ-UHFFFAOYSA-N,COC(=O)c1ccc2cc(ccc2c1)C(=O)OC,-6.211736201,0.0448657142000001,2,G3,244.246,2.4130000000000003,66.62700000000002,18.0,4.0,0.0,4.0,2.0,92.0,2.0,0.0,0.0,2.0,52.60000000000001,104.1229707679199,2.48058883057574,560.9701430031515,Low,False
A-2206,"1,4-dihydroxy-9,10-dihydroanthracene-9,10-dione","InChI=1S/C14H8O4/c15-9-5-6-10(16)12-11(9)13(17)7-3-1-2-4-8(7)14(12)18/h1-6,15-16H",GUEIZVNYDFNHJU-UHFFFAOYSA-N,Oc1ccc(O)c2C(=O)c3ccccc3C(=O)c12,-6.2534935167,0.0853916607426202,6,G5,240.214,1.8732,63.07860000000002,18.0,4.0,2.0,4.0,0.0,88.0,2.0,0.0,1.0,3.0,74.6,102.12406210530456,2.4094150669454457,640.9353339687133,Low,False
A-2210,"1,2-bis(propan-2-yl)naphthalene","InChI=1S/C16H20/c1-11(2)14-10-9-13-7-5-6-8-15(13)16(14)12(3)4/h5-12H,1-4H3",IAUKWGFWINVWKS-UHFFFAOYSA-N,CC(C)c1ccc2ccccc2c1C(C)C,-6.2301136188,0.0477607960273211,3,G5,212.336,5.086600000000004,72.12600000000005,16.0,0.0,0.0,0.0,2.0,84.0,2.0,0.0,0.0,2.0,0.0,98.3027203376118,2.789289725212396,492.3645117435043,Low,False
A-2214,dioctylstannanone,"InChI=1S/2C8H17.O.Sn/c2*1-3-5-7-8-6-4-2;;/h2*1,3-8H2,2H3;;",LQRUPWUPINJLMU-UHFFFAOYSA-N,CCCCCCCC[Sn](=O)CCCCCCCC,-6.4785159933,0.4486688290499998,2,G3,361.1580000000003,6.129400000000007,82.80650000000007,18.0,1.0,0.0,2.0,14.0,108.0,0.0,0.0,0.0,0.0,17.07,122.24357046268518,3.124621332555885,161.9357738214561,Low,False
A-2221,"1,1-bis(tert-butylperoxy)-3,3,5-trimethylcyclohexane","InChI=1S/C17H34O4/c1-13-10-16(8,9)12-17(11-13,20-18-14(2,3)4)21-19-15(5,6)7/h13H,10-12H2,1-9H3",NALFRYPTRXKZPN-UHFFFAOYSA-N,CC1CC(C)(C)CC(C1)(OOC(C)(C)C)OOC(C)(C)C,-6.4806607684,0.4603078406482507,4,G5,302.45500000000004,5.022300000000005,83.37300000000008,21.0,4.0,0.0,4.0,4.0,126.0,0.0,1.0,1.0,1.0,36.92,129.88526525415017,2.87240301325283,317.67972077346747,Low,False