ID,Name,InChI,InChIKey,SMILES,Solubility,SD,Ocurrences,Group,MolWt,MolLogP,MolMR,HeavyAtomCount,NumHAcceptors,NumHDonors,NumHeteroatoms,NumRotatableBonds,NumValenceElectrons,NumAromaticRings,NumSaturatedRings,NumAliphaticRings,RingCount,TPSA,LabuteASA,BalabanJ,BertzCT,bin,is_sol
A-661,"trisodium (4E)-3-oxo-4-[2-(4-sulfonatonaphthalen-1-yl)hydrazin-1-ylidene]-3,4-dihydronaphthalene-2,7-disulfonate","InChI=1S/C20H14N2O10S3.3Na/c23-20-18(35(30,31)32)10-11-9-12(33(24,25)26)5-6-13(11)19(20)22-21-16-7-8-17(34(27,28)29)15-4-2-1-3-14(15)16;;;/h1-10,21H,(H,24,25,26)(H,27,28,29)(H,30,31,32);;;/q;3*+1/p-3/b22-19+;;;",VOBHRQFELWTZFS-DXVNCNPQSA-K,[Na+].[Na+].[Na+].[O-][S](=O)(=O)c1ccc2c(c1)C=C(C(=O)/C2=N/Nc3ccc(c4ccccc34)[S]([O-])(=O)=O)[S]([O-])(=O)=O,-1.0824140873,0.03959062305,2,G3,604.4830000000003,-8.055000000000014,119.1573,38.0,12.0,1.0,18.0,5.0,182.0,3.0,0.0,1.0,4.0,213.06,283.6374458171736,2.406665406896974e-06,1821.9484329702357,High,True
A-662,"3,5-dimethylphenol","InChI=1S/C8H10O/c1-6-3-7(2)5-8(9)4-6/h3-5,9H,1-2H3",TUAMRELNJMMDMT-UHFFFAOYSA-N,Cc1cc(C)cc(O)c1,-1.3879839049,0.00527509115,2,G3,122.16699999999996,2.00904,37.5808,9.0,1.0,1.0,1.0,0.0,48.0,1.0,0.0,0.0,1.0,20.23,54.95552110048619,3.165670309917317,165.32984016148868,High,True
A-666,"2,6-dimethylheptan-4-one","InChI=1S/C9H18O/c1-7(2)5-9(10)6-8(3)4/h7-8H,5-6H2,1-4H3",PTTPXKJBFFKCEK-UHFFFAOYSA-N,CC(C)CC(=O)CC(C)C,-2.4540578458,0.3572114815085936,3,G5,142.242,2.6477000000000013,43.917000000000016,10.0,1.0,0.0,1.0,4.0,60.0,0.0,0.0,0.0,0.0,17.07,63.82031004304616,3.4443870603345483,91.29589375350572,High,True
A-668,7-amino-4-hydroxynaphthalene-2-sulfonic acid,"InChI=1S/C10H9NO4S/c11-7-1-2-9-6(3-7)4-8(5-10(9)12)16(13,14)15/h1-5,12H,11H2,(H,13,14,15)",KYARBIJYVGJZLB-UHFFFAOYSA-N,Nc1ccc2c(O)cc(cc2c1)[S](O)(=O)=O,-2.6798855726,0.0484550065,2,G3,239.252,1.3743,59.83980000000002,16.0,4.0,3.0,6.0,1.0,84.0,2.0,0.0,0.0,2.0,100.62,91.8758281104815,2.851898648979944,663.8185193123855,High,True
A-675,"5-hydroxy-2-(3-hydroxy-4-methoxyphenyl)-4-oxo-3,4-dihydro-2H-chromen-7-yl 6-O-(6-deoxy-alpha-L-mannopyranosyl)-beta-D-glucopyranoside","InChI=1S/C28H34O15/c1-10-21(32)23(34)25(36)27(40-10)39-9-19-22(33)24(35)26(37)28(43-19)41-12-6-14(30)20-15(31)8-17(42-18(20)7-12)11-3-4-16(38-2)13(29)5-11/h3-7,10,17,19,21-30,32-37H,8-9H2,1-2H3/t10-,17-,19+,21-,22+,23+,24-,25+,26+,27+,28+/m0/s1",QUQPHWDTPGMPEX-QJBIFVCTSA-N,COc1ccc(cc1O)[C@@H]2CC(=O)c3c(O)cc(O[C@@H]4O[C@H](CO[C@@H]5O[C@@H](C)[C@H](O)[C@@H](O)[C@H]5O)[C@@H](O)[C@H](O)[C@H]4O)cc3O2,-5.0104856455,0.1208484896481467,6,G5,610.5650000000003,-1.1566000000000003,140.6989,43.0,15.0,8.0,15.0,7.0,236.0,2.0,2.0,3.0,5.0,234.29,244.50674118997216,1.3039965777101097,1319.3038683813045,Low,False
A-689,"(1S,2S,4S)-1,7,7-trimethylbicyclo[2.2.1]heptan-2-yl prop-2-enoate","InChI=1S/C13H20O2/c1-5-11(14)15-10-8-9-6-7-13(10,4)12(9,2)3/h5,9-10H,1,6-8H2,2-4H3/t9-,10?,13+/m0/s1",PSGCQDPCAWOCSH-BOURZNODSA-N,CC1(C)[C@H]2CC[C@]1(C)C(C2)OC(=O)C=C,-4.5830924552,0.2805331453000002,2,G3,208.301,2.930400000000001,59.30600000000004,15.0,2.0,0.0,2.0,2.0,84.0,0.0,2.0,2.0,2.0,26.3,91.6923583908968,2.1860629445674684,305.6578138422799,Low,False
A-705,"(2S,5R)-5-methyl-2-(propan-2-yl)cyclohexan-1-one","InChI=1S/C10H18O/c1-7(2)9-5-4-8(3)6-10(9)11/h7-9H,4-6H2,1-3H3/t8-,9+/m1/s1",NFLGAXVYCFJBMK-BDAKNGLRSA-N,CC(C)[C@@H]1CC[C@@H](C)CC1=O,-2.4918772305,0.1050592404236474,3,G5,154.253,2.6477000000000013,46.35000000000002,11.0,1.0,0.0,1.0,1.0,64.0,0.0,1.0,1.0,1.0,17.07,69.17942100391355,2.50769391643314,148.9517669080599,High,True
A-708,"1,3,5-trimethylbenzene","InChI=1S/C9H12/c1-7-4-8(2)6-9(3)5-7/h4-6H,1-3H3",AUHZEENZYGFFBQ-UHFFFAOYSA-N,Cc1cc(C)cc(C)c1,-3.382657059,0.0070911523000003,2,G3,120.19499999999998,2.611860000000001,40.65300000000001,9.0,0.0,0.0,0.0,0.0,48.0,1.0,0.0,0.0,1.0,0.0,56.52622946268679,3.165670309917317,160.80051514850786,High,True
A-709,2-methyl-6-methylideneoct-7-en-2-yl acetate,"InChI=1S/C12H20O2/c1-6-10(2)8-7-9-12(4,5)14-11(3)13/h6H,1-2,7-9H2,3-5H3",DCXXKSXLKWAZNO-UHFFFAOYSA-N,CC(=O)OC(C)(C)CCCC(=C)C=C,-3.5974164985000003,0.1876676951999998,2,G3,196.29,3.2406000000000024,59.03300000000004,14.0,2.0,0.0,2.0,6.0,80.0,0.0,0.0,0.0,0.0,26.3,86.6494755513744,3.808919296563424,226.47622838888884,High,True
A-718,"N,N-dipropylpropan-1-amine","InChI=1S/C9H21N/c1-4-7-10(8-5-2)9-6-3/h4-9H2,1-3H3",YFTHZRPMJXBUME-UHFFFAOYSA-N,CCCN(CCC)CCC,-2.4722202552000003,0.0992761758238562,3,G5,143.27399999999997,2.5184000000000006,47.31300000000002,10.0,1.0,0.0,1.0,6.0,62.0,0.0,0.0,0.0,0.0,3.24,65.41862161320577,3.2950821163049606,47.48394345536403,High,True
A-719,ammonia,InChI=1S/H3N/h1H3,QGZKDVFQNNGYKY-UHFFFAOYSA-N,N,1.4518068893,0.029165463768454,4,G5,17.031,0.1619999999999999,5.0221,1.0,1.0,1.0,1.0,0.0,8.0,0.0,0.0,0.0,0.0,35.0,7.50422812385033,0.0,0.0,High,True
A-725,2-propylheptan-1-ol,"InChI=1S/C10H22O/c1-3-5-6-8-10(9-11)7-4-2/h10-11H,3-9H2,1-2H3",YLQLIQIAXYRMDL-UHFFFAOYSA-N,CCCCCC(CO)CCC,-3.5181985232,0.1576779810736071,4,G5,158.28499999999997,2.9753000000000016,49.62580000000003,11.0,1.0,1.0,1.0,7.0,68.0,0.0,0.0,0.0,0.0,20.23,70.81796380959503,3.203898482222308,71.27302875388389,High,True
A-743,"1,1,1,2,2-pentafluoroethane","InChI=1S/C2HF5/c3-1(4)2(5,6)7/h1H",GTLACDSXYULKMZ-UHFFFAOYSA-N,FC(F)C(F)(F)F,-1.4164957907,0.0364041152,2,G3,120.02,1.8138,12.059,7.0,0.0,0.0,5.0,0.0,44.0,0.0,0.0,0.0,0.0,0.0,35.93187015685733,3.541196965079901,51.5907190016011,High,True
A-744,"2,3-dimethylphenol","InChI=1S/C8H10O/c1-6-4-3-5-8(9)7(6)2/h3-5,9H,1-2H3",QWBBPBRQALCEIZ-UHFFFAOYSA-N,Cc1cccc(O)c1C,-1.4241960776,0.0341826406499998,2,G3,122.167,2.00904,37.5808,9.0,1.0,1.0,1.0,0.0,48.0,1.0,0.0,0.0,1.0,20.23,54.9555211004862,3.2478347337367026,195.55766205433733,High,True
A-756,4-nitrophenyl acetate,"InChI=1S/C8H7NO4/c1-6(10)13-8-4-2-7(3-5-8)9(11)12/h2-5H,1H3",QAUUDNIGJSLPSX-UHFFFAOYSA-N,CC(=O)Oc1ccc(cc1)[N+]([O-])=O,-2.5992568252,0.0296284125999999,2,G3,181.147,1.5200999999999998,44.405400000000014,13.0,4.0,0.0,5.0,2.0,68.0,1.0,0.0,0.0,1.0,69.44,74.08933040034063,2.809454194164694,330.5021927396972,High,True
A-772,"2-methylpropyl 3,5-diamino-4-chlorobenzoate","InChI=1S/C11H15ClN2O2/c1-6(2)5-16-11(15)7-3-8(13)10(12)9(14)4-7/h3-4,6H,5,13-14H2,1-2H3",KHUIRIRTZCOEMK-UHFFFAOYSA-N,CC(C)COC(=O)c1cc(N)c(Cl)c(N)c1,-2.738284824,0.0053690993999999,2,G3,242.706,2.3172,65.39730000000002,16.0,4.0,2.0,5.0,3.0,88.0,1.0,0.0,0.0,1.0,78.34,99.51422864193772,2.843280331678351,381.96619044899546,High,True
A-779,"2,4,6-trichloro-1,3,5-triazine",InChI=1S/C3Cl3N3/c4-1-7-2(5)9-3(6)8-1,MGNCLNQXLYJVJD-UHFFFAOYSA-N,Clc1nc(Cl)nc(Cl)n1,-2.6223388564,0.05726798815,2,G3,184.413,1.8318000000000003,34.857,9.0,3.0,0.0,6.0,0.0,48.0,1.0,0.0,0.0,1.0,38.67,66.00014574298152,3.165670309917317,175.06517765499825,High,True
A-791,"androsta-1,4-diene-3,17-dione","InChI=1S/C19H24O2/c1-18-9-7-13(20)11-12(18)3-4-14-15-5-6-17(21)19(15,2)10-8-16(14)18/h7,9,11,14-16H,3-6,8,10H2,1-2H3",LUJVUUWNAPIQQI-UHFFFAOYSA-N,CC12CCC3C(CCC4=CC(=O)C=CC34C)C1CCC2=O,-2.8204596094,0.0152298046999999,2,G3,284.39900000000006,3.863400000000003,81.62300000000003,21.0,2.0,0.0,2.0,0.0,112.0,0.0,3.0,4.0,4.0,34.14,126.2287226085706,1.7204141031770943,584.3737738095996,High,True
A-800,"benzyl({[(2,6-dimethylphenyl)carbamoyl]methyl})diethylazanium benzoate hydrate","InChI=1S/C21H28N2O.C7H6O2/c1-5-23(6-2,15-19-13-8-7-9-14-19)16-20(24)22-21-17(3)11-10-12-18(21)4;8-7(9)6-4-2-1-3-5-6/h7-14H,5-6,15-16H2,1-4H3;1-5H,(H,8,9)",VWTINHYPRWEBQY-UHFFFAOYSA-N,CC[N+](CC)(CC(=O)Nc1c(C)cccc1C)Cc2ccccc2.[O-]C(=O)c3ccccc3,-1.020958606,0.0121305765499999,2,G3,446.5910000000001,4.348840000000004,131.6736,33.0,3.0,1.0,5.0,8.0,174.0,3.0,0.0,0.0,3.0,69.22999999999999,196.83778912181052,3.5731477943970845e-07,1009.2728455685752,High,True
A-803,hexan-1-ol,"InChI=1S/C6H14O/c1-2-3-4-5-6-7/h7H,2-6H2,1H3",ZSIAUFGUXNUGDI-UHFFFAOYSA-N,CCCCCCO,-1.382910122,0.2752101014089659,4,G5,102.177,1.559,31.22779999999998,7.0,1.0,1.0,1.0,4.0,44.0,0.0,0.0,0.0,0.0,20.23,45.35819535200859,2.447472887876344,23.36099039894992,High,True
A-808,5-methyl-2-(propan-2-yl)cyclohexan-1-ol,"InChI=1S/C10H20O/c1-7(2)9-5-4-8(3)6-10(9)11/h7-11H,4-6H2,1-3H3/t8-,9+,10-/m1/s1",NOOLISFMXDJSKH-KXUCPTDWSA-N,CC(C)[C@@H]1CC[C@@H](C)C[C@H]1O,-2.5706235426,0.0451175868182429,7,G5,156.269,2.439500000000001,47.34980000000002,11.0,1.0,1.0,1.0,1.0,66.0,0.0,1.0,1.0,1.0,20.23,69.8121326560658,2.437159260034696,120.0411847243922,High,True
A-813,2-methoxy-2-methylpropane,"InChI=1S/C5H12O/c1-5(2,3)6-4/h1-4H3",BZLVMXJERCGZMT-UHFFFAOYSA-N,COC(C)(C)C,-0.3235268543,0.0888685389773562,3,G5,88.14999999999999,1.4313,26.761999999999983,6.0,1.0,0.0,1.0,0.0,38.0,0.0,0.0,0.0,0.0,9.23,39.31256471492286,3.168489872670569,33.69332843436965,High,True
A-819,"(2-phenylbutan-2-yl)benzene; (2-phenylethyl)benzene; 1,2,4,5-tetraethylbenzene; 1-methyl-2-phenylbenzene; 1-methylnaphthalene; benzene; cyclohexylbenzene; ethenylbenzene; ethylbenzene; phenylbenzene; toluene","InChI=1S/C16H18.C14H14.C14H22.C13H12.C12H16.C12H10.C11H10.C8H10.C8H8.C7H8.C6H6/c1-3-16(2,14-10-6-4-7-11-14)15-12-8-5-9-13-15;1-3-7-13(8-4-1)11-12-14-9-5-2-6-10-14;1-5-11-9-13(7-3)14(8-4)10-12(11)6-2;1-11-7-5-6-10-13(11)12-8-3-2-4-9-12;2*1-3-7-11(8-4-1)12-9-5-2-6-10-12;1-9-5-4-7-10-6-2-3-8-11(9)10;2*1-2-8-6-4-3-5-7-8;1-7-5-3-2-4-6-7;1-2-4-6-5-3-1/h4-13H,3H2,1-2H3;1-10H,11-12H2;9-10H,5-8H2,1-4H3;2-10H,1H3;1,3-4,7-8,12H,2,5-6,9-10H2;1-10H;2-8H,1H3;3-7H,2H2,1H3;2-7H,1H2;2-6H,1H3;1-6H",ILFKMCMFANUWPS-UHFFFAOYSA-N,CCc1ccccc1.CCc2cc(CC)c(CC)cc2CC.CCC(C)(c3ccccc3)c4ccccc4.Cc5ccccc5.Cc6ccccc6c7ccccc7.Cc8cccc9ccccc89.C=Cc%10ccccc%10.C%11CCC(CC%11)c%12ccccc%12.C(Cc%13ccccc%13)c%14ccccc%14.c%15ccccc%15.c%16ccc(cc%16)c%17ccccc%17,-4.5881768419,0.10742192405,2,G3,1588.4030000000002,33.96896000000007,533.2950000000026,121.0,0.0,0.0,0.0,15.0,618.0,16.0,1.0,1.0,17.0,0.0,731.128700974417,1.8500023126372757e-07,4995.820440212791,Low,False
A-827,"tetrasodium 5-{[(2E)-6-[bis(2-hydroxyethyl)amino]-4-[(4-sulfonatophenyl)amino]-1,2-dihydro-1,3,5-triazin-2-ylidene]amino}-2-[(E)-2-(4-{[(2E)-6-[bis(2-hydroxyethyl)amino]-4-[(4-sulfonatophenyl)amino]-1,2-dihydro-1,3,5-triazin-2-ylidene]amino}-2-sulfonatophenyl)ethenyl]benzene-1-sulfonate","InChI=1S/C40H44N12O16S4.4Na/c53-19-15-51(16-20-54)39-47-35(41-27-5-9-29(10-6-27)69(57,58)59)45-37(49-39)43-31-13-3-25(23-33(31)71(63,64)65)1-2-26-4-14-32(34(24-26)72(66,67)68)44-38-46-36(48-40(50-38)52(17-21-55)18-22-56)42-28-7-11-30(12-8-28)70(60,61)62;;;;/h1-14,23-24,53-56H,15-22H2,(H,57,58,59)(H,60,61,62)(H,63,64,65)(H,66,67,68)(H2,41,43,45,47,49)(H2,42,44,46,48,50);;;;/q;4*+1/p-4/b2-1+;;;;",UGOUPNUFULXHAK-MBCFVHIPSA-J,[Na+].[Na+].[Na+].[Na+].OCCN(CCO)c1nc(Nc2ccc(cc2)[S]([O-])(=O)=O)nc(Nc3ccc(\C=C\c4ccc(Nc5nc(Nc6ccc(cc6)[S]([O-])(=O)=O)nc(n5)N(CCO)CCO)c(c4)[S]([O-])(=O)=O)cc3[S]([O-])(=O)=O)n1,-0.4642868095,0.1054266826499999,2,G3,1165.0559999999998,-11.58420000000004,252.1027999999997,76.0,28.0,8.0,36.0,24.0,384.0,6.0,0.0,0.0,6.0,441.66,524.058773761911,4.940825005477092e-06,3181.666312394562,High,True
A-830,"1,2-dimethyl benzene-1,2-dicarboxylate","InChI=1S/C10H10O4/c1-13-9(11)7-5-3-4-6-8(7)10(12)14-2/h3-6H,1-2H3",NIQCNGHVCWTJSM-UHFFFAOYSA-N,COC(=O)c1ccccc1C(=O)OC,-1.6861579246,0.1321251289156513,3,G5,194.18599999999995,1.2597999999999998,49.12100000000002,14.0,4.0,0.0,4.0,2.0,74.0,1.0,0.0,0.0,1.0,52.60000000000001,81.44130623618467,3.153839931025287,321.8945603891669,High,True
A-833,"ethyl 4,4,4-trifluoro-3-oxobutanoate","InChI=1S/C6H7F3O3/c1-2-12-5(11)3-4(10)6(7,8)9/h2-3H2,1H3",OCJKUQIPRNZDTK-UHFFFAOYSA-N,CCOC(=O)CC(=O)C(F)(F)F,-1.6630244633000002,0.1505122316500001,2,G3,184.113,1.0710000000000002,32.31199999999999,12.0,3.0,0.0,6.0,3.0,70.0,0.0,0.0,0.0,0.0,43.370000000000005,66.4971572381857,3.93718701617912,184.967556752381,High,True
A-834,"oxydiethane-2,1-diyl dinitrate",InChI=1S/C4H8N2O7/c7-5(8)12-3-1-11-2-4-13-6(9)10/h1-4H2,LYAGTVMJGHTIDH-UHFFFAOYSA-N,[O-][N+](=O)OCCOCCO[N+]([O-])=O,-1.6904508209,0.0088670774720894,3,G5,196.115,-0.5804,36.71180000000001,13.0,7.0,0.0,9.0,8.0,76.0,0.0,0.0,0.0,0.0,113.97000000000004,72.38874150349555,2.9961049979124525,153.87547739228722,High,True
A-844,nickel(2+) ion oxalate,"InChI=1S/C2H2O4.Ni/c3-1(4)2(5)6;/h(H,3,4)(H,5,6);/q;+2/p-2",DOLZKNFSRCEOFV-UHFFFAOYSA-L,[Ni++].[O-]C(=O)C([O-])=O,-3.556228502,0.2986984753000001,2,G3,146.71099999999998,-3.5163,10.014,7.0,4.0,0.0,5.0,0.0,42.0,0.0,0.0,0.0,0.0,80.25999999999999,49.06245746641779,0.0,75.69058447171099,High,True
A-867,"(1,1-dimethylpropyl)benzene","InChI=1S/C11H16/c1-4-11(2,3)10-8-6-5-7-9-10/h5-9H,4H2,1-3H3",QHTJSSMHBLGUHV-UHFFFAOYSA-N,CCC(C)(C)c1ccccc1,-4.5007459195,0.17547295975,2,G3,148.24899999999997,3.374200000000002,49.75900000000004,11.0,0.0,0.0,0.0,2.0,60.0,1.0,0.0,0.0,1.0,0.0,69.25611369148,2.9284445313943723,208.7397365016785,Medium,False
A-868,"2-methyl-4-(2,6,6-trimethylcyclohex-2-en-1-yl)butanal","InChI=1S/C14H24O/c1-11-7-5-9-14(3,4)13(11)12(2)8-6-10-15/h7,10,12-13H,5-6,8-9H2,1-4H3",ACVNYUMGXUDACR-UHFFFAOYSA-N,CC(CCC=O)C1C(=CCCC1(C)C)C,-4.6532020914,0.4437148703500004,2,G3,208.34499999999997,3.9841000000000033,64.72400000000005,15.0,1.0,0.0,1.0,4.0,86.0,0.0,0.0,1.0,1.0,17.07,93.94958642931572,2.740845336614066,250.06431514214864,Low,False
A-870,"2,2-dimethyl-3-methylidenebicyclo[2.2.1]heptane","InChI=1S/C10H16/c1-7-8-4-5-9(6-8)10(7,2)3/h8-9H,1,4-6H2,2-3H3",CRPUJAZIXJMDBK-UHFFFAOYSA-N,CC1(C)C2CCC(C2)C1=C,-4.4715404278,0.01975427065,2,G3,136.238,2.9987000000000013,43.75200000000002,10.0,0.0,0.0,0.0,0.0,56.0,0.0,2.0,2.0,2.0,0.0,63.322464718156304,2.3367677527130697,176.47733175670794,Medium,False
A-874,methyl decanoate,"InChI=1S/C11H22O2/c1-3-4-5-6-7-8-9-10-11(12)13-2/h3-10H2,1-2H3",YRHYCMZPEVDGFQ-UHFFFAOYSA-N,CCCCCCCCCC(=O)OC,-4.6267485225,0.197001436013458,3,G5,186.295,3.3001000000000023,54.62600000000005,13.0,2.0,0.0,2.0,8.0,78.0,0.0,0.0,0.0,0.0,26.3,81.66373950134629,2.951096443012517,121.2586863990795,Low,False
A-875,dipraseodymium(3+) ion tricarbonate,"InChI=1S/3CH2O3.2Pr/c3*2-1(3)4;;/h3*(H2,2,3,4);;/q;;;2*+3/p-6",XIRHLBQGEYXJKG-UHFFFAOYSA-H,[Pr+3].[Pr+3].[O-]C([O-])=O.[O-]C([O-])=O.[O-]C([O-])=O,-5.0220270242,0.2576798609500002,2,G3,461.84000000000026,-7.341000000000001,16.188,14.0,9.0,0.0,11.0,0.0,72.0,0.0,0.0,0.0,0.0,189.57,143.6407251631794,-2.699999991e-08,115.6067314326046,Low,False
A-890,dibutylstannanone,"InChI=1S/2C4H9.O.Sn/c2*1-3-4-2;;/h2*1,3-4H2,2H3;;",JGFBRKRYDCGYKD-UHFFFAOYSA-N,CCCC[Sn](=O)CCCC,-4.7940381830000005,0.0977599054499998,2,G3,248.94199999999995,3.0086000000000013,45.87050000000002,10.0,1.0,0.0,2.0,6.0,60.0,0.0,0.0,0.0,0.0,17.07,71.3240335475123,3.0863484262353005,81.25838096618139,Low,False
A-895,methyl 4-methylbenzoate,"InChI=1S/C9H10O2/c1-7-3-5-8(6-4-7)9(10)11-2/h3-6H,1-2H3",QSSJZLPUHJDYKF-UHFFFAOYSA-N,COC(=O)c1ccc(C)cc1,-2.5767203524,0.0224333104315939,3,G5,150.177,1.78162,42.51850000000002,11.0,2.0,0.0,2.0,1.0,58.0,1.0,0.0,0.0,1.0,26.3,65.80129679223742,2.8953480359887567,248.77017257091032,High,True
A-898,"benzene-1,2-diamine","InChI=1S/C6H8N2/c7-5-3-1-2-4-6(5)8/h1-4H,7-8H2",GEYOCULIXLDCMW-UHFFFAOYSA-N,Nc1ccccc1N,-0.4396098786999999,0.0516332853200585,3,G5,108.144,0.851,35.2668,8.0,2.0,2.0,2.0,0.0,42.0,1.0,0.0,0.0,1.0,52.04,48.11118451352239,3.134861511345448,162.63833891467198,High,True
A-901,"1,2-benzisothiazol-3(2H)-one 1,1-dioxide","InChI=1S/C7H5NO3S/c9-7-5-3-1-2-4-6(5)12(10,11)8-7/h1-4H,(H,8,9)",CVHZOJJKTDOEJC-UHFFFAOYSA-N,O=C1N[S](=O)(=O)c2ccccc12,-1.6718324141,0.0595413714354937,6,G5,183.188,0.1186999999999999,41.094000000000015,12.0,3.0,1.0,5.0,0.0,62.0,1.0,0.0,1.0,2.0,63.24,69.26267425643123,2.828397697128564,449.4742221869951,High,True
A-907,calcium molybdate,InChI=1S/Ca.Mo.4O/q+2;;;;2*-1,BIOOACNPATUQFW-UHFFFAOYSA-N,[Ca++].[O-][Mo]([O-])(=O)=O,-3.7036943449,0.1659203575499999,2,G3,200.014,-2.9989,7.126999999999999,6.0,4.0,0.0,6.0,0.0,32.0,0.0,0.0,0.0,0.0,80.25999999999999,67.88673505608293,0.0,90.7164928725825,Medium,False
A-909,"6,10-dimethylundeca-5,9-dien-2-one","InChI=1S/C13H22O/c1-11(2)7-5-8-12(3)9-6-10-13(4)14/h7,9H,5-6,8,10H2,1-4H3/b12-9+",HNZUNIKWNYHEJJ-FMIVXFBMSA-N,CC(C)=CCC\C(C)=C\CCC(C)=O,-3.6974484249,0.3216439492499998,2,G3,194.318,4.048300000000003,62.337000000000046,14.0,1.0,0.0,1.0,6.0,80.0,0.0,0.0,0.0,0.0,17.07,87.90087243626411,3.670448527133007,229.62011791630908,High,True
A-914,prop-2-en-1-yl hexanoate,"InChI=1S/C9H16O2/c1-3-5-6-7-9(10)11-8-4-2/h4H,2-3,5-8H2,1H3",RCSBILYQLVXLJG-UHFFFAOYSA-N,CCCCCC(=O)OCC=C,-2.6105517594,0.1554631397375599,3,G5,156.22499999999997,2.2959000000000005,45.298000000000016,11.0,2.0,0.0,2.0,6.0,64.0,0.0,0.0,0.0,0.0,26.3,68.2442522403688,3.151008352942726,118.731140660285,High,True
A-936,decan-1-ol,"InChI=1S/C10H22O/c1-2-3-4-5-6-7-8-9-10-11/h11H,2-10H2,1H3",MWKFXSUHUHTGQN-UHFFFAOYSA-N,CCCCCCCCCCO,-3.6312380365,0.4066813050584317,4,G5,158.285,3.119400000000002,49.69580000000003,11.0,1.0,1.0,1.0,8.0,68.0,0.0,0.0,0.0,0.0,20.23,70.81796380959506,2.6909155266923976,53.89311688209828,High,True
A-951,2-[2-(benzoyloxy)ethoxy]ethyl benzoate,"InChI=1S/C18H18O5/c19-17(15-7-3-1-4-8-15)22-13-11-21-12-14-23-18(20)16-9-5-2-6-10-16/h1-10H,11-14H2",NXQMCAOPTPLPRL-UHFFFAOYSA-N,O=C(OCCOCCOC(=O)c1ccccc1)c2ccccc2,-3.937488879,0.0184446143802379,4,G5,314.33700000000005,2.7170000000000005,84.26800000000004,23.0,5.0,0.0,5.0,8.0,120.0,2.0,0.0,0.0,2.0,61.830000000000005,134.34182990054887,1.529201718235942,554.3237759453147,Medium,False
A-954,"1,2,4-trichlorobenzene",InChI=1S/C6H3Cl3/c7-4-1-2-5(8)6(9)3-4/h1-3H,PBKONEOXTCPAFI-UHFFFAOYSA-N,Clc1ccc(Cl)c(Cl)c1,-3.7024520783,0.1240415558335194,8,G5,181.449,3.6468000000000007,41.47200000000001,9.0,0.0,0.0,3.0,0.0,48.0,1.0,0.0,0.0,1.0,0.0,68.34120180014197,3.171678030440916,219.54299954784685,Medium,False
A-960,methoxymethane,InChI=1S/C2H6O/c1-3-2/h1-2H3,LCGLNKUTAGEVQW-UHFFFAOYSA-N,COC,0.8843659201,0.44440493135,2,G3,46.069,0.2626,12.933000000000002,3.0,1.0,0.0,1.0,0.0,20.0,0.0,0.0,0.0,0.0,9.23,20.21773837173304,1.6329931618554523,2.754887502163468,High,True
A-969,"1,2,3,4-tetrahydronaphthalene","InChI=1S/C10H12/c1-2-6-10-8-4-3-7-9(10)5-1/h1-2,5-6H,3-4,7-8H2",CXWXQJXEFPUFDZ-UHFFFAOYSA-N,C1CCc2ccccc2C1,-3.5673681389,0.3520697642383597,5,G5,132.20599999999996,2.5654000000000003,43.08400000000002,10.0,0.0,0.0,0.0,0.0,52.0,1.0,0.0,1.0,2.0,0.0,61.88534042355416,2.414292094177304,200.23484899951495,High,True
A-975,Cobaltous acetate,"InChI=1S/2C2H4O2.Co/c2*1-2(3)4;/h2*1H3,(H,3,4);/q;;+2/p-2",QAHREYKOYSIQPH-UHFFFAOYSA-L,[Co++].CC([O-])=O.CC([O-])=O,0.2936043702,0.0073366703999999,2,G3,177.021,-2.490099999999999,21.36199999999999,9.0,4.0,0.0,5.0,0.0,55.0,0.0,0.0,0.0,0.0,80.25999999999999,63.0714537104907,-7.199999951999999e-08,70.56842503028855,High,True
A-976,6-(prop-2-enoyloxy)hexyl prop-2-enoate,"InChI=1S/C12H18O4/c1-3-11(13)15-9-7-5-6-8-10-16-12(14)4-2/h3-4H,1-2,5-10H2",FIHBHSQYSYVZQE-UHFFFAOYSA-N,C=CC(=O)OCCCCCCOC(=O)C=C,-2.8193366955,0.01050419035,2,G3,226.272,2.0052,60.78000000000004,16.0,4.0,0.0,4.0,9.0,90.0,0.0,0.0,0.0,0.0,52.6,95.92454288092505,3.1530770852631704,219.40331533468293,High,True
A-982,4-[(E)-2-phenyldiazen-1-yl]aniline,"InChI=1S/C12H11N3/c13-10-6-8-12(9-7-10)15-14-11-4-2-1-3-5-11/h1-9H,13H2",QPQKUYVSJWQSDY-UHFFFAOYSA-N,Nc1ccc(cc1)N=Nc2ccccc2,-3.7597030757,0.2801667191506911,3,G5,197.24100000000004,3.6842000000000015,61.47240000000003,15.0,3.0,1.0,3.0,2.0,74.0,2.0,0.0,0.0,2.0,50.74,88.2751658670628,2.1529892819390977,446.0532648827137,Medium,False
A-993,valeric acid,"InChI=1S/C5H10O2/c1-2-3-4-5(6)7/h2-4H2,1H3,(H,6,7)",NQPDZGIKBAWPEJ-UHFFFAOYSA-N,CCCCC(O)=O,-0.490652149,0.0883490879798417,5,G5,102.13299999999998,1.2612,27.160799999999988,7.0,1.0,1.0,2.0,3.0,42.0,0.0,0.0,0.0,0.0,37.3,43.15477533765576,2.8219389370591843,59.10049400592805,High,True
A-999,"1,4-bis[(E)-prop-1-enoxy]cyclohexane 1,4-di(prop-1-enoxy)cyclohexane","InChI=1S/C12H20O2/c1-3-9-13-11-5-7-12(8-6-11)14-10-4-2/h3-4,9-12H,5-8H2,1-2H3/b9-3+,10-4+",TXHDDWGFTSDFEB-LQIBPGRFSA-N,C\C=C\OC1CCC(CC1)O\C=C\C,-3.9037320907,0.0233717017500001,2,G3,196.29,3.3980000000000024,57.84200000000004,14.0,2.0,0.0,2.0,4.0,80.0,0.0,1.0,1.0,1.0,18.46,86.59566752730825,2.17000731921284,166.49841012019368,Medium,False