ID,Name,InChI,InChIKey,SMILES,Solubility,SD,Ocurrences,Group,MolWt,MolLogP,MolMR,HeavyAtomCount,NumHAcceptors,NumHDonors,NumHeteroatoms,NumRotatableBonds,NumValenceElectrons,NumAromaticRings,NumSaturatedRings,NumAliphaticRings,RingCount,TPSA,LabuteASA,BalabanJ,BertzCT,bin,is_sol
A-3950,"N,N-bis(carboxymethyl)-L-glutamic acid","InChI=1S/C9H13NO8/c11-6(12)2-1-5(9(17)18)10(3-7(13)14)4-8(15)16/h5H,1-4H2,(H,11,12)(H,13,14)(H,15,16)(H,17,18)",VCVKIIDXVWEWSZ-UHFFFAOYSA-N,OC(=O)CCC(N(CC(O)=O)CC(O)=O)C(O)=O,0.0436038038999999,0.079160517,2,G3,263.202,-1.2243999999999988,55.13820000000001,18.0,5.0,4.0,9.0,9.0,102.0,0.0,0.0,0.0,0.0,152.44,101.24164502216492,4.828573742534609,336.476798218004,High,True
A-3975,pivalic acid,"InChI=1S/C5H10O2/c1-5(2,3)4(6)7/h1-3H3,(H,6,7)",IUGYQRQAERSCNH-UHFFFAOYSA-N,CC(C)(C)C(O)=O,-0.5635618856,0.0545690571999999,2,G3,102.13299999999998,1.1171,27.090799999999987,7.0,1.0,1.0,2.0,0.0,42.0,0.0,0.0,0.0,0.0,37.3,43.15477533765576,3.7911184170869663,78.57116899294724,High,True
A-3985,barium(2+) ion dichloride,InChI=1S/Ba.2ClH.2H2O/h;2*1H;2*1H2/q+2;;;;/p-2,PWHCIQQGOQTFAE-UHFFFAOYSA-L,O.O.[Cl-].[Cl-].[Ba++],0.0418928153,0.00557840105,2,G3,244.264,-8.0222,12.981599999999998,5.0,0.0,0.0,5.0,0.0,32.0,0.0,0.0,0.0,0.0,63.0,83.2123116801542,-0.0,7.609640474436813,High,True
A-3986,"2-bromo-2-nitropropane-1,3-diol","InChI=1S/C3H6BrNO4/c4-3(1-6,2-7)5(8)9/h6-7H,1-2H2",LVDKZNITIUWNER-UHFFFAOYSA-N,OCC(Br)(CO)[N+]([O-])=O,0.1271308568,0.0299312757092958,4,G5,199.988,-0.6611,32.824,9.0,4.0,2.0,6.0,3.0,54.0,0.0,0.0,0.0,0.0,83.6,59.57812608915594,4.090340515801205,112.38037532843026,High,True
A-3992,"1,3-dioxepane",InChI=1S/C5H10O2/c1-2-4-7-5-6-3-1/h1-5H2,CZLMRJZAHXYRIX-UHFFFAOYSA-N,C1CCOCOC1,0.4107896597,0.0285827531,2,G3,102.133,0.7709,26.00499999999999,7.0,2.0,0.0,2.0,0.0,42.0,0.0,1.0,1.0,1.0,18.46,43.42027879090051,2.0416666666666665,25.693328434369647,High,True
A-3996,4-methylpent-3-en-2-one,"InChI=1S/C6H10O/c1-5(2)4-6(3)7/h4H,1-3H3",SHOJXDKTYKFBRD-UHFFFAOYSA-N,CC(C)=CC(C)=O,-0.560826234,0.0149131169999999,2,G3,98.145,1.5416,30.111999999999988,7.0,1.0,0.0,1.0,1.0,40.0,0.0,0.0,0.0,0.0,17.07,44.035880667672096,3.679228031962392,96.7476472676892,High,True
A-3999,4-chlorophenol,"InChI=1S/C6H5ClO/c7-5-1-3-6(8)4-2-5/h1-4,8H",WXNZTHHGJRFXKQ-UHFFFAOYSA-N,Oc1ccc(Cl)cc1,-0.6876597172,0.0227735028480295,5,G5,128.558,2.0456,33.1168,8.0,1.0,1.0,2.0,0.0,42.0,1.0,0.0,0.0,1.0,20.23,52.52890309857465,3.0324555320336755,147.38833891467198,High,True
A-4000,methacrylonitrile,"InChI=1S/C4H5N/c1-4(2)3-5/h1H2,2H3",GYCMBHHDWRMZGG-UHFFFAOYSA-N,CC(=C)C#N,-0.4067085165999999,0.024286982888185,4,G5,67.09100000000001,1.08608,20.426999999999992,5.0,1.0,0.0,1.0,0.0,26.0,0.0,0.0,0.0,0.0,23.79,31.537054020303835,3.348800763644439,76.13896548741764,High,True
A-4001,2-methylphenol,"InChI=1S/C7H8O/c1-6-4-2-3-5-7(6)8/h2-5,8H,1H3",QWVGKYWNOKOFNN-UHFFFAOYSA-N,Cc1ccccc1O,-0.6190130172999999,0.00851666965,2,G3,108.14,1.70062,32.843799999999995,8.0,1.0,1.0,1.0,0.0,42.0,1.0,0.0,0.0,1.0,20.23,48.59057898608958,3.134861511345448,160.49662946459569,High,True
A-4004,dilithium(1+) ion sulfate,"InChI=1S/2Li.H2O4S/c;;1-5(2,3)4/h;;(H2,1,2,3,4)/q2*+1;/p-2",INHCSSUBVCNVSK-UHFFFAOYSA-L,[Li+].[Li+].[O-][S]([O-])(=O)=O,0.3921242805,0.0589591332526582,3,G5,109.945,-7.329999999999999,10.4746,7.0,4.0,0.0,7.0,0.0,32.0,0.0,0.0,0.0,0.0,80.25999999999999,65.60131360359244,-7.999999835000003e-08,92.8582023226588,High,True
A-4017,2-phenoxyethan-1-ol,"InChI=1S/C8H10O2/c9-6-7-10-8-4-2-1-3-5-8/h1-5,9H,6-7H2",QCDWFXQBSFUVSP-UHFFFAOYSA-N,OCCOc1ccccc1,-0.742461176,0.0190644000262581,4,G5,138.16599999999997,1.0577,39.02280000000002,10.0,2.0,1.0,2.0,3.0,54.0,1.0,0.0,0.0,1.0,29.46,60.06906632999306,2.4265223465879537,171.872282370036,High,True
A-4024,N'-acetylacetohydrazide,"InChI=1S/C4H8N2O2/c1-3(7)5-6-4(2)8/h1-2H3,(H,5,7)(H,6,8)",ZLHNYIHIHQEHJQ-UHFFFAOYSA-N,CC(=O)NNC(C)=O,0.3286681761,0.0557873875499999,2,G3,116.12,-0.8264,27.633399999999995,8.0,2.0,2.0,4.0,0.0,46.0,0.0,0.0,0.0,0.0,58.2,47.22698195855797,3.1818458670936187,96.60593781761293,High,True
A-4029,2-(dimethylamino)ethyl acrylate,"InChI=1S/C7H13NO2/c1-4-7(9)10-6-5-8(2)3/h4H,1,5-6H2,2-3H3",DPBJAVGHACCNRL-UHFFFAOYSA-N,CN(C)CCOC(=O)C=C,0.2243106848,0.30989437915,2,G3,143.18599999999998,0.2771999999999999,39.71,10.0,3.0,0.0,3.0,4.0,58.0,0.0,0.0,0.0,0.0,29.54,61.27420168177895,3.1948650246270067,120.77451436272597,High,True
A-4030,"4-methyl-1,3-dioxolan-2-one","InChI=1S/C4H6O3/c1-3-2-6-4(5)7-3/h3H,2H2,1H3",RUOJZAUFBMNUDX-UHFFFAOYSA-N,CC1COC(=O)O1,0.371232292,0.06858659655,2,G3,102.08899999999998,0.5417000000000001,21.89499999999999,7.0,3.0,0.0,3.0,0.0,40.0,0.0,1.0,1.0,1.0,35.53,41.21685877654767,2.39706714269016,88.93569696954752,High,True
A-4032,aniline; formaldehyde,"InChI=1S/C6H7N.CH2O/c7-6-4-2-1-3-5-6;1-2/h1-5H,7H2;1H2",OUCPJZWNFRYRBI-UHFFFAOYSA-N,Nc1ccccc1.C=O,-2.0040922179,0.2778319356160217,3,G5,123.155,1.0839,37.975400000000015,9.0,2.0,1.0,2.0,0.0,48.0,1.0,0.0,0.0,1.0,43.09,54.30358918447927,2.914285599204087e-07,150.26213946331586,High,True
A-4036,"1,3-dioxo-1,3-dihydro-2-benzofuran-5-carboxylic acid","InChI=1S/C9H4O5/c10-7(11)4-1-2-5-6(3-4)9(13)14-8(5)12/h1-3H,(H,10,11)",SRPWOOOHEPICQU-UHFFFAOYSA-N,OC(=O)c1ccc2C(=O)OC(=O)c2c1,-0.8961963145999999,0.0927408879,2,G3,192.126,0.6954,43.1473,14.0,4.0,1.0,5.0,1.0,70.0,1.0,0.0,1.0,2.0,80.66999999999999,77.91274359099175,2.6076190147194995,460.2701600541334,High,True
A-4040,"3-hydroxy-2,2-dimethylpropyl 3-hydroxy-2,2-dimethylpropanoate","InChI=1S/C10H20O4/c1-9(2,5-11)7-14-8(13)10(3,4)6-12/h11-12H,5-7H2,1-4H3",SZCWBURCISJFEZ-UHFFFAOYSA-N,CC(C)(CO)COC(=O)C(C)(C)CO,0.0682018165,0.0296763309,2,G3,204.266,0.5665999999999998,52.692600000000034,14.0,4.0,2.0,4.0,5.0,84.0,0.0,0.0,0.0,0.0,66.76,84.88726489134169,4.098442002267489,196.29867917997396,High,True
A-4044,pentan-2-ol,"InChI=1S/C5H12O/c1-3-4-5(2)6/h5-6H,3-4H2,1-2H3",JYVLIDXNZAXMDK-UHFFFAOYSA-N,CCCC(C)O,-0.2541408245,0.02087958775,2,G3,88.14999999999999,1.1673,26.58879999999999,6.0,1.0,1.0,1.0,2.0,38.0,0.0,0.0,0.0,0.0,20.23,38.99325323761199,2.6272148478988635,25.11941547876375,High,True
A-4047,3-methylphenol,"InChI=1S/C7H8O/c1-6-3-2-4-7(8)5-6/h2-5,8H,1H3",RLSSMJSEOOYNOY-UHFFFAOYSA-N,Cc1cccc(O)c1,-0.662918503,0.0075210024999999,2,G3,108.14,1.7006199999999998,32.843799999999995,8.0,1.0,1.0,1.0,0.0,42.0,1.0,0.0,0.0,1.0,20.23,48.59057898608958,3.077660437970554,164.24662946459569,High,True
A-4049,methanethiol,"InChI=1S/CH4S/c1-2/h2H,1H3",LSDPWZHWYPCBBB-UHFFFAOYSA-N,CS,-0.3148794359,0.0899176001,2,G3,48.11000000000001,0.546,14.910000000000002,2.0,1.0,1.0,1.0,0.0,14.0,0.0,0.0,0.0,0.0,0.0,19.89431769123128,1.0,2.0,High,True
A-4055,potassium difluorodihydroxyboranuide,"InChI=1S/BF2H2O2.K/c2-1(3,4)5;/h4-5H;/q-1;+1",VRMTUNITGONABS-UHFFFAOYSA-N,[K+].O[B-](O)(F)F,-0.724347118,0.1789299664209986,4,G5,121.92,-3.6504,12.4076,6.0,2.0,2.0,6.0,0.0,32.0,0.0,0.0,0.0,0.0,40.46,76.04297620220316,0.0,27.019550008653876,High,True
A-4070,2-chlorophenol,"InChI=1S/C6H5ClO/c7-5-3-1-2-4-6(5)8/h1-4,8H",ISPYQTSUDJAMAB-UHFFFAOYSA-N,Oc1ccccc1Cl,-0.7538392019,0.1451426870684993,3,G5,128.558,2.0456000000000003,33.1168,8.0,1.0,1.0,2.0,0.0,42.0,1.0,0.0,0.0,1.0,20.23,52.52890309857465,3.134861511345448,164.63833891467198,High,True
A-4076,2-[1-(aminomethyl)cyclohexyl]acetic acid hydrochloride,"InChI=1S/C9H17NO2.ClH/c10-7-9(6-8(11)12)4-2-1-3-5-9;/h1-7,10H2,(H,11,12);1H",XBUDZAQEMFGLEU-UHFFFAOYSA-N,[H+].[Cl-].NCC1(CCCCC1)CC(O)=O,0.0190211463,0.0139433460449551,3,G5,207.701,-1.513199999999998,47.93720000000003,13.0,2.0,2.0,4.0,3.0,78.0,0.0,1.0,1.0,1.0,63.32,86.58649496077065,0.0,172.19488940668188,High,True
A-4084,"1,3,5-trioxane",InChI=1S/C3H6O3/c1-4-2-6-3-5-1/h1-3H2,BGJSXRVXTHVRSN-UHFFFAOYSA-N,C1OCOCO1,0.3717171259,0.045403707,2,G3,90.078,-0.0776999999999999,17.855999999999998,6.0,3.0,0.0,3.0,0.0,36.0,0.0,1.0,1.0,1.0,27.69,35.803939791614184,2.0,21.509775004326936,High,True
A-4093,"2-ethyl-2-{[2-ethyl-3-hydroxy-2-(hydroxymethyl)propoxy]methyl}propane-1,3-diol","InChI=1S/C12H26O5/c1-3-11(5-13,6-14)9-17-10-12(4-2,7-15)8-16/h13-16H,3-10H2,1-2H3",WMYINDVYGQKYMI-UHFFFAOYSA-N,CCC(CO)(CO)COCC(CC)(CO)CO,-1.076302279,0.0463511395,2,G3,250.33499999999992,-0.2350000000000002,64.61020000000006,17.0,5.0,4.0,5.0,10.0,104.0,0.0,0.0,0.0,0.0,90.15,103.04409452448316,4.276302630183746,150.80568456189224,High,True
A-4100,prop-2-enal,"InChI=1S/C3H4O/c1-2-3-4/h2-3H,1H2",HGINCPLSRVDWNT-UHFFFAOYSA-N,C=CC=O,0.5693792548,0.2003103726,2,G3,56.064,0.3712999999999999,16.261,4.0,1.0,0.0,1.0,1.0,22.0,0.0,0.0,0.0,0.0,17.07,24.94105432448228,2.7320508075688776,24.264662506490403,High,True
A-4106,2-methylprop-2-enamide,"InChI=1S/C4H7NO/c1-3(2)4(5)6/h1H2,2H3,(H2,5,6)",FQPSGWSUVKBHSU-UHFFFAOYSA-N,CC(=C)C(N)=O,0.3753911904,0.15267568475,2,G3,85.10600000000001,0.0478000000000001,24.008399999999995,6.0,1.0,1.0,2.0,1.0,34.0,0.0,0.0,0.0,0.0,43.09,36.6458871358916,3.5677034550432034,73.5488750216347,High,True
A-4116,2-phenylethan-1-ol,"InChI=1S/C8H10O/c9-7-6-8-4-2-1-3-5-8/h1-5,9H,6-7H2",WRMNZCZEMHIOCP-UHFFFAOYSA-N,OCCc1ccccc1,-0.7859239136,0.0422840790633597,3,G5,122.16699999999996,1.2214,37.23180000000001,9.0,1.0,1.0,1.0,2.0,48.0,1.0,0.0,0.0,1.0,20.23,54.95552110048619,2.61489994009295,157.4784207656209,High,True
A-4123,salicylonitrile,"InChI=1S/C7H5NO/c8-5-6-3-1-2-4-7(6)9/h1-4,9H",CHZCERSEMVWNHL-UHFFFAOYSA-N,Oc1ccccc1C#N,-0.7749656265,0.0954082422872603,3,G5,119.123,1.26388,32.8218,9.0,2.0,1.0,2.0,0.0,44.0,1.0,0.0,0.0,1.0,44.02,52.9831586675583,3.199326438626795,249.3382179862608,High,True
A-4128,benzoic acid,"InChI=1S/C7H6O2/c8-7(9)6-4-2-1-3-5-6/h1-5H,(H,8,9)",WPYMKLBDIGXBTP-UHFFFAOYSA-N,OC(=O)c1ccccc1,-1.619929844,0.0452226064107283,3,G5,122.12299999999996,1.3848,33.4013,9.0,1.0,1.0,2.0,1.0,46.0,1.0,0.0,0.0,1.0,37.3,52.75210108613335,2.981454614041131,203.415952604261,High,True
A-4130,"6-hydroxy-1,4-dihydropyrimidin-4-one","InChI=1S/C4H4N2O2/c7-3-1-4(8)6-2-5-3/h1-2H,(H2,5,6,7,8)",DUFGYCAXVIUXIP-UHFFFAOYSA-N,OC1=CC(=O)NC=N1,-1.5871611222,0.2640271891625481,4,G5,112.088,-0.5245000000000002,26.5225,8.0,3.0,2.0,4.0,0.0,42.0,1.0,0.0,0.0,1.0,65.97999999999999,44.82645493362977,3.277417459528498,229.47996149735152,High,True
A-4143,N-(2-methylphenyl)-3-oxobutanamide,"InChI=1S/C11H13NO2/c1-8-5-3-4-6-10(8)12-11(14)7-9(2)13/h3-6H,7H2,1-2H3,(H,12,14)",TVZIWRMELPWPPR-UHFFFAOYSA-N,CC(=O)CC(=O)Nc1ccccc1C,-1.8501922609,0.0228787453,2,G3,191.23,1.91262,55.106700000000025,14.0,2.0,1.0,3.0,3.0,74.0,1.0,0.0,0.0,1.0,46.17,83.12902007517556,2.649628786208871,358.0600935330303,High,True
A-4144,[1-(carbamoylamino)-2-methylpropyl]urea,"InChI=1S/C6H14N4O2/c1-3(2)4(9-5(7)11)10-6(8)12/h3-4H,1-2H3,(H3,7,9,11)(H3,8,10,12)",QFHMNFAUXJAINK-UHFFFAOYSA-N,CC(C)C(NC(N)=O)NC(N)=O,-1.8096943587,0.47712125475,2,G3,174.20399999999998,-0.694899999999999,44.06419999999999,12.0,2.0,4.0,6.0,3.0,70.0,0.0,0.0,0.0,0.0,110.23999999999998,70.66651156114163,4.0396960957048975,164.38689879982144,High,True
A-4146,"2,2'-(1,3-phenylene)dipropan-2-ol","InChI=1S/C12H18O2/c1-11(2,13)9-6-5-7-10(8-9)12(3,4)14/h5-8,13-14H,1-4H3",UGPWRRVOLLMHSC-UHFFFAOYSA-N,CC(C)(O)c1cccc(c1)C(C)(C)O,-1.8635330455,0.0332400285999999,2,G3,194.274,2.1414000000000004,56.931600000000046,14.0,2.0,2.0,2.0,2.0,78.0,1.0,0.0,0.0,1.0,40.46,85.20952331026862,3.148163892365612,286.5789935420091,High,True
A-4147,2-ethyl-6-methylaniline,"InChI=1S/C9H13N/c1-3-8-6-4-5-7(2)9(8)10/h4-6H,3,10H2,1-2H3",JJVKJJNCIILLRP-UHFFFAOYSA-N,CCc1cccc(C)c1N,-1.7061271762,0.0657104321000001,2,G3,135.20999999999995,2.13962,44.96940000000002,10.0,1.0,1.0,1.0,1.0,54.0,1.0,0.0,0.0,1.0,26.02,61.86612015969951,3.14303948130643,228.16991743324436,High,True
A-4149,calcium sulfate,"InChI=1S/Ca.H2O4S/c;1-5(2,3)4/h;(H2,1,2,3,4)/q+2;/p-2",OSGAYBCDTDRGGQ-UHFFFAOYSA-L,[Ca++].[O-][S]([O-])(=O)=O,-1.715687645,0.0244688415655958,3,G5,136.141,-1.7188,16.2286,6.0,4.0,0.0,6.0,0.0,32.0,0.0,0.0,0.0,0.0,80.25999999999999,65.1219505469518,0.0,90.7164928725825,High,True
A-4158,"1,1-dichloroethene",InChI=1S/C2H2Cl2/c1-2(3)4/h1H2,LGXVIGDEPROXKC-UHFFFAOYSA-N,ClC(Cl)=C,-1.5885809265000002,0.0228595367499999,2,G3,96.944,1.9352,20.846,4.0,0.0,0.0,2.0,0.0,24.0,0.0,0.0,0.0,0.0,0.0,35.02112256380525,2.8030394876740514,27.019550008653876,High,True
A-4167,2-chlorobenzenethiol,"InChI=1S/C6H5ClS/c7-5-3-1-2-4-6(5)8/h1-4,8H",PWOBDMNCYMQTCE-UHFFFAOYSA-N,Sc1ccccc1Cl,-1.7800351331,0.4394509894319334,3,G5,144.62599999999998,2.6287000000000003,38.704000000000015,8.0,1.0,1.0,2.0,0.0,42.0,1.0,0.0,0.0,1.0,0.0,58.88973600978036,3.134861511345448,164.63833891467198,High,True
A-4176,oct-7-en-1-ol,"InChI=1S/C8H16O/c1-2-3-4-5-6-7-8-9/h2,9H,1,3-8H2",WXPWPYISTQCNDP-UHFFFAOYSA-N,OCCCCCCC=C,-1.7442328638,0.0160809291499999,2,G3,128.215,2.1152,40.3678,9.0,1.0,1.0,1.0,6.0,54.0,0.0,0.0,0.0,0.0,20.23,57.39847654861756,2.663883887398184,59.58797503894244,High,True
A-4181,4-methylbenzaldehyde,"InChI=1S/C8H8O/c1-7-2-4-8(6-9)5-3-7/h2-6H,1H3",FXLOVSHXALFLKQ-UHFFFAOYSA-N,Cc1ccc(C=O)cc1,-1.7237015325,0.4790429242999999,2,G3,120.15099999999998,1.80752,36.566500000000005,9.0,1.0,0.0,1.0,1.0,46.0,1.0,0.0,0.0,1.0,17.07,54.32280944833394,3.009781947786601,198.3125495565008,High,True
A-4184,2-nitrophenol,"InChI=1S/C6H5NO3/c8-6-4-2-1-3-5(6)7(9)10/h1-4,8H",IQUPABOKLQSFBK-UHFFFAOYSA-N,Oc1ccccc1[N+]([O-])=O,-1.8029142358,0.032277332906406,3,G5,139.11,1.3004000000000002,34.7612,10.0,3.0,1.0,4.0,1.0,52.0,1.0,0.0,0.0,1.0,63.37,56.87861259419278,3.1529414466808685,258.9247708743934,High,True
A-4197,"5-methyl-2-phenyl-2,3-dihydro-1H-pyrazol-3-one","InChI=1S/C10H10N2O/c1-8-7-10(13)12(11-8)9-5-3-2-4-6-9/h2-6H,7H2,1H3",QELUYTUMUWHWMC-UHFFFAOYSA-N,CC1=NN(C(=O)C1)c2ccccc2,-1.9250852844,0.0584994726999998,2,G3,174.203,1.7992,51.654000000000025,13.0,2.0,0.0,3.0,1.0,66.0,1.0,0.0,1.0,2.0,32.67,76.6721546998964,2.3262386182068613,356.4473120841761,High,True
A-4198,heptanal,"InChI=1S/C7H14O/c1-2-3-4-5-6-7-8/h7H,2-6H2,1H3",FXHGMKSSBGDXIY-UHFFFAOYSA-N,CCCCCCC=O,-1.7501244285,0.1129498510377274,3,G5,114.188,2.1557000000000004,34.822999999999986,8.0,1.0,0.0,1.0,5.0,48.0,0.0,0.0,0.0,0.0,17.07,51.09042581425296,2.616293090417985,50.34851554559677,High,True
A-4200,tert-butyl prop-2-enoate,"InChI=1S/C7H12O2/c1-5-6(8)9-7(2,3)4/h5H,1H2,2-4H3",ISXSCDLOGDJUNJ-UHFFFAOYSA-N,CC(C)(C)OC(=O)C=C,-1.8045937153,0.1946911025000001,2,G3,128.17099999999996,1.5141,36.042,9.0,2.0,0.0,2.0,1.0,52.0,0.0,0.0,0.0,0.0,26.3,55.514368011575584,3.736394291812786,119.36806555425063,High,True
A-4205,2-methylpropyl prop-2-enoate,"InChI=1S/C7H12O2/c1-4-7(8)9-5-6(2)3/h4,6H,1,5H2,2-3H3",CFVWNXQPGQOHRJ-UHFFFAOYSA-N,CC(C)COC(=O)C=C,-1.8067597771,0.2926971166136439,3,G5,128.17099999999996,1.3716000000000002,35.99399999999999,9.0,2.0,0.0,2.0,3.0,52.0,0.0,0.0,0.0,0.0,26.3,55.514368011575584,3.27250147237882,105.4837783761905,High,True
A-4207,4-amino-3-methylphenol,"InChI=1S/C7H9NO/c1-5-4-6(9)2-3-7(5)8/h2-4,9H,8H2,1H3",QGNGOGOOPUYKMC-UHFFFAOYSA-N,Cc1cc(O)ccc1N,-1.7894220529,0.0774509799999999,2,G3,123.155,1.2828199999999998,37.2562,9.0,2.0,2.0,2.0,0.0,48.0,1.0,0.0,0.0,1.0,46.25,53.930469683102295,3.171678030440916,220.15617759993404,High,True
A-4223,"2-methylbenzene-1,3-diol","InChI=1S/C7H8O2/c1-5-6(8)3-2-4-7(5)9/h2-4,8-9H,1H3",ZTMADXFOCUXMJE-UHFFFAOYSA-N,Cc1c(O)cccc1O,0.1927727267,0.06681363665,2,G3,124.13899999999995,1.4062199999999998,34.5086,9.0,2.0,2.0,2.0,0.0,48.0,1.0,0.0,0.0,1.0,40.46,53.3848127382856,3.2478347337367035,197.9061775999341,High,True
A-4224,2-methylbut-3-en-2-ol,"InChI=1S/C5H10O/c1-4-5(2,3)6/h4,6H,1H2,2-3H3",HNVRRHSXBLFLIG-UHFFFAOYSA-N,CC(C)(O)C=C,0.351057238,0.356871381,2,G3,86.134,0.9433,26.494799999999987,6.0,1.0,1.0,1.0,1.0,36.0,0.0,0.0,0.0,0.0,20.23,38.30365020542773,3.4459912135188397,49.44900955152481,High,True
A-4225,dilithium adipate,"InChI=1S/C6H10O4.2Li/c7-5(8)3-1-2-4-6(9)10;;/h1-4H2,(H,7,8)(H,9,10);;/q;2*+1/p-2",ZPJGNHUPXGDASP-UHFFFAOYSA-L,[Li+].[Li+].[O-]C(=O)CCCCC([O-])=O,0.0846221527,0.3207377110894062,5,G5,158.008,-7.945400000000004,28.48199999999999,12.0,4.0,0.0,6.0,5.0,58.0,0.0,0.0,0.0,0.0,80.25999999999999,95.070604356157,-4.049999451000077e-07,121.50977500432694,High,True
A-4226,dilithium(1+) ion decanedioate,"InChI=1S/C10H18O4.2Li/c11-9(12)7-5-3-1-2-4-6-8-10(13)14;;/h1-8H2,(H,11,12)(H,13,14);;/q;2*+1/p-2",QFFPUGXEOWMNCP-UHFFFAOYSA-L,[Li+].[Li+].[O-]C(=O)CCCCCCCCC([O-])=O,-0.0473478928,0.3207377110466919,5,G5,214.116,-6.384999999999998,46.95000000000002,16.0,4.0,0.0,6.0,9.0,82.0,0.0,0.0,0.0,0.0,80.25999999999999,120.53037281374344,-8.449997543000735e-07,165.65784284662087,High,True
A-4227,dilithium(1+) ion nonanedioate,"InChI=1S/C9H16O4.2Li/c10-8(11)6-4-2-1-3-5-7-9(12)13;;/h1-7H2,(H,10,11)(H,12,13);;/q;2*+1/p-2",KCEQQLDYFGMIGU-UHFFFAOYSA-L,[Li+].[Li+].[O-]C(=O)CCCCCCCC([O-])=O,-0.017921985,0.3207377110703323,5,G5,200.089,-6.7751,42.33300000000001,15.0,4.0,0.0,6.0,8.0,76.0,0.0,0.0,0.0,0.0,80.25999999999999,114.16543069934684,-7.199998222500451e-07,155.4952794320032,High,True
A-4238,"4-[(2,4-dichloro-5-methoxyphenyl)amino]-6-methoxy-7-[3-(4-methylpiperazin-1-yl)propoxy]quinoline-3-carbonitrile","InChI=1S/C26H29Cl2N5O3/c1-32-6-8-33(9-7-32)5-4-10-36-25-13-21-18(11-24(25)35-3)26(17(15-29)16-30-21)31-22-14-23(34-2)20(28)12-19(22)27/h11-14,16H,4-10H2,1-3H3,(H,30,31)",UBPYILGKFZZVDX-UHFFFAOYSA-N,COc1cc(Nc2c(cnc3cc(OCCCN4CCN(C)CC4)c(OC)cc23)C#N)c(Cl)cc1Cl,-4.8795513261000005,0.1839883926499994,2,G3,530.4560000000004,5.190380000000005,143.35569999999984,36.0,8.0,1.0,10.0,9.0,190.0,3.0,1.0,1.0,4.0,82.88,220.8076192908437,1.5708066366430866,1272.8949540436165,Low,False
A-4242,A mixture of RR and RS isomers of: (2-(2-methoxy-1-methyl)ethoxy)-1-methylethyl acetate; (2-(2-methoxy-2-methyl)ethoxy)-1-methylethyl acetate; (2-(2-methoxy-2-methyl)ethoxy)-2-methylethyl acetate; (2-(2-methoxy-1-methyl)ethoxy)-2-methylethyl acetate,"InChI=1S/C9H18O4/c1-4-9(13-8(2)10)12-7-5-6-11-3/h9H,4-7H2,1-3H3",USDXBNSCKZJDLC-UHFFFAOYSA-N,CCC(OCCCOC)OC(C)=O,-0.0168484647,0.01267423235,2,G3,190.239,1.3387,48.29000000000004,13.0,4.0,0.0,4.0,7.0,78.0,0.0,0.0,0.0,0.0,44.760000000000005,79.16094573156681,3.4182863869895925,135.5763913228534,High,True
A-4252,4-ethoxyaniline,"InChI=1S/C8H11NO/c1-2-10-8-5-3-7(9)4-6-8/h3-6H,2,9H2,1H3",IMPPGHMHELILKG-UHFFFAOYSA-N,CCOc1ccc(N)cc1,-0.8608353259999999,0.0122840956999999,2,G3,137.182,1.6675,42.02340000000001,10.0,2.0,1.0,2.0,2.0,54.0,1.0,0.0,0.0,1.0,35.25,60.61472327480977,2.693803452362809,192.9174941941729,High,True
A-4268,ammonium hydrogen carbonate,"InChI=1S/3CH2O3.2H3N.2Zn/c3*2-1(3)4;;;;/h3*(H2,2,3,4);2*1H3;;/q;;;;;2*+2/p-4",QOPSSYZLVIENBR-UHFFFAOYSA-J,[NH4+].[NH4+].[Zn++].[Zn++].[O-]C([O-])=O.[O-]C([O-])=O.[O-]C([O-])=O,-0.2897617622,0.0460013392499999,2,G3,346.8820000000001,-6.593600000000002,28.15760000000001,16.0,9.0,2.0,13.0,0.0,88.0,0.0,0.0,0.0,0.0,262.57,114.76892319001158,-1.3499999962500004e-08,124.30376252379816,High,True
A-4277,2-(acetyloxy)ethyl acetate,"InChI=1S/C6H10O4/c1-5(7)9-3-4-10-6(2)8/h3-4H2,1-2H3",JTXMVXSTHSMVQF-UHFFFAOYSA-N,CC(=O)OCCOC(C)=O,0.068474963,0.0145490396298627,3,G5,146.142,0.1126,33.26599999999999,10.0,4.0,0.0,4.0,3.0,58.0,0.0,0.0,0.0,0.0,52.6,59.11409625891388,3.0550899395377584,113.70950594454668,High,True
A-4278,"disodium 1-amino-9,10-dihydro-9,10-dioxo-4-[[4-[[2-(sulphonatooxy)ethyl]sulphonyl]phenyl]amino]anthracene-2-sulphonate","InChI=1S/C22H18N2O11S3.2Na/c23-20-17(37(29,30)31)11-16(18-19(20)22(26)15-4-2-1-3-14(15)21(18)25)24-12-5-7-13(8-6-12)36(27,28)10-9-35-38(32,33)34;;/h1-8,11,24H,9-10,23H2,(H,29,30,31)(H,32,33,34);;/q;2*+1/p-2",JALBGZPFNQMHSM-UHFFFAOYSA-L,[Na+].[Na+].Nc1c2C(=O)c3ccccc3C(=O)c2c(Nc4ccc(cc4)[S](=O)(=O)CCO[S]([O-])(=O)=O)cc1[S]([O-])(=O)=O,-0.5639623965,0.0103717458368876,3,G5,626.5540000000003,-5.049599999999993,129.55129999999997,40.0,13.0,2.0,18.0,8.0,200.0,3.0,0.0,1.0,4.0,229.95999999999995,273.2443446692472,2.801663854183526e-06,1826.0871799457016,High,True