ID,Name,InChI,InChIKey,SMILES,Solubility,SD,Ocurrences,Group,MolWt,MolLogP,MolMR,HeavyAtomCount,NumHAcceptors,NumHDonors,NumHeteroatoms,NumRotatableBonds,NumValenceElectrons,NumAromaticRings,NumSaturatedRings,NumAliphaticRings,RingCount,TPSA,LabuteASA,BalabanJ,BertzCT,bin,is_sol
B-461,tri n-butylamine,"InChI=1S/C12H27N/c1-4-7-10-13(11-8-5-2)12-9-6-3/h4-12H2,1-3H3",IMFACGCPASFAPR-UHFFFAOYSA-N,CCCCN(CCCC)CCCC,-3.1157,0.2824256210727736,3,G5,185.35499999999996,3.6887000000000025,61.16400000000006,13.0,1.0,0.0,1.0,9.0,80.0,0.0,0.0,0.0,0.0,3.24,84.51344795639562,3.467990238339422,72.1057163358342,High,True
B-468,4-methylacetanilide,"InChI=1S/C9H11NO/c1-7-3-5-9(6-4-7)10-8(2)11/h3-6H,1-2H3,(H,10,11)",YICAMJWHIUMFDI-UHFFFAOYSA-N,CC(=O)Nc1ccc(C)cc1,-2.0946,0.0672999999999999,2,G3,149.19299999999998,1.95342,45.48270000000002,11.0,1.0,1.0,2.0,1.0,58.0,1.0,0.0,0.0,1.0,29.1,66.23761374633858,2.7362980721056545,250.77017257091032,High,True
B-471,p-toluenesulfonic acid,"InChI=1S/C7H8O3S/c1-6-2-4-7(5-3-6)11(8,9)10/h2-5H,1H3,(H,8,9,10)",JOXIMZWYDAKGHI-UHFFFAOYSA-N,Cc1ccc(cc1)[S](O)(=O)=O,0.5564,0.13488002585,2,G3,172.20499999999998,1.24172,40.993600000000015,11.0,2.0,1.0,4.0,1.0,60.0,1.0,0.0,0.0,1.0,54.37,65.4249812439342,3.2015159310664942,336.4533650434956,High,True
B-486,methyl acetoacetate,"InChI=1S/C5H8O3/c1-4(6)3-5(7)8-2/h3H2,1-2H3",WRQNANDWMGAFTP-UHFFFAOYSA-N,COC(=O)CC(C)=O,0.6341,0.15050396665,2,G3,116.116,0.1384999999999998,27.313999999999982,8.0,3.0,0.0,3.0,2.0,46.0,0.0,0.0,0.0,0.0,43.370000000000005,47.6356089150104,3.3954996118673995,106.24140984101264,High,True
B-496,ethyl heptanoate,"InChI=1S/C9H18O2/c1-3-5-6-7-8-9(10)11-4-2/h3-8H2,1-2H3",TVQGDYNRXLTQAP-UHFFFAOYSA-N,CCCCCCC(=O)OCC,-2.7369,0.177352011078426,3,G5,158.241,2.5199000000000007,45.39200000000002,11.0,2.0,0.0,2.0,6.0,66.0,0.0,0.0,0.0,0.0,26.3,68.93385527255305,3.040425665876032,99.73585546369786,High,True
B-499,3-heptanone,"InChI=1S/C7H14O/c1-3-5-6-7(8)4-2/h3-6H2,1-2H3",NGAZZOYFWWSOGK-UHFFFAOYSA-N,CCCCC(=O)CC,-1.4242,0.2610999999999999,2,G3,114.188,2.1557000000000004,34.822999999999986,8.0,1.0,0.0,1.0,4.0,48.0,0.0,0.0,0.0,0.0,17.07,51.09042581425295,2.988598647973156,66.78707744334402,High,True
B-504,3-octanone,"InChI=1S/C8H16O/c1-3-5-6-7-8(9)4-2/h3-7H2,1-2H3",RHLVCLIPMVJYKS-UHFFFAOYSA-N,CCCCCC(=O)CC,-1.693,0.3020172779999999,2,G3,128.21499999999995,2.5458000000000007,39.440000000000005,9.0,1.0,0.0,1.0,5.0,54.0,0.0,0.0,0.0,0.0,17.07,57.455367928649565,2.9730624080867365,76.63682062300136,High,True
B-506,"decanedioic acid, dimethyl ester","InChI=1S/C12H22O4/c1-15-11(13)9-7-5-3-4-6-8-10-12(14)16-2/h3-10H2,1-2H3",ALOUNLDAKADEEB-UHFFFAOYSA-N,COC(=O)CCCCCCCCC(=O)OC,-3.2831,0.1996825072999999,2,G3,230.30399999999997,2.4532000000000007,60.968000000000046,16.0,4.0,0.0,4.0,9.0,94.0,0.0,0.0,0.0,0.0,52.60000000000001,97.30374894529356,3.0976081049326942,179.19544121138722,High,True
B-509,1-butyne,"InChI=1S/C4H6/c1-3-4-2/h1H,4H2,2H3",KDKYADYSIPSCCQ-UHFFFAOYSA-N,CCC#C,-1.2753,0.01765,2,G3,54.09199999999999,1.0295999999999998,19.124,4.0,0.0,0.0,0.0,0.0,22.0,0.0,0.0,0.0,0.0,0.0,26.833302762878645,2.4330963097956344,29.793193904479523,High,True
B-512,3-chloropropylene,"InChI=1S/C3H5Cl/c1-2-3-4/h2H,1,3H2",OSDWBNJEKMUWAV-UHFFFAOYSA-N,ClCC=C,-1.3562,0.2639,2,G3,76.52600000000001,1.4112,20.916999999999994,4.0,0.0,0.0,1.0,1.0,24.0,0.0,0.0,0.0,0.0,0.0,31.082798451320183,2.2968352619191386,17.24511249783653,High,True
B-546,4-methyl-2-pentanol,"InChI=1S/C6H14O/c1-5(2)4-6(3)7/h5-7H,4H2,1-3H3",WVYWICLMDOOCFB-UHFFFAOYSA-N,CC(C)CC(C)O,-0.7945,0.06180167315,2,G3,102.17699999999998,1.4133,31.135799999999985,7.0,1.0,1.0,1.0,2.0,44.0,0.0,0.0,0.0,0.0,20.23,45.3581953520086,2.9532231745612925,33.44467835888275,High,True
B-553,metaldehyde (tetramer),"InChI=1S/C8H16O4/c1-5-9-6(2)11-8(4)12-7(3)10-5/h5-8H,1-4H3",GKKDCARASOJPNG-UHFFFAOYSA-N,CC1OC(C)OC(C)OC(C)O1,-2.8997,0.0151499999999999,2,G3,176.212,1.4504,42.18800000000002,12.0,4.0,0.0,4.0,0.0,72.0,0.0,1.0,1.0,1.0,36.92,72.7421955931041,2.450052921667673,99.01955000865388,High,True
B-554,ethyl isovalerate,"InChI=1S/C7H14O2/c1-4-9-7(8)5-6(2)3/h6H,4-5H2,1-3H3",PPXUHEORWJQRHJ-UHFFFAOYSA-N,CCOC(=O)CC(C)C,-1.8135,0.0920636582943411,3,G5,130.18699999999998,1.5956,36.088,9.0,2.0,0.0,2.0,3.0,54.0,0.0,0.0,0.0,0.0,26.3,56.20397104375983,3.2711920488970017,86.91694057588533,High,True
B-569,"piperazine, 2-methyl-","InChI=1S/C5H12N2/c1-5-4-6-2-3-7-5/h5-7H,2-4H2,1H3",JOMNTHCQHJPVAZ-UHFFFAOYSA-N,CC1CNCCN1,0.6378,0.0510999999999999,2,G3,100.165,-0.4323000000000001,30.334399999999988,7.0,2.0,2.0,2.0,0.0,42.0,0.0,1.0,1.0,1.0,24.06,44.29291269910284,2.1229179499593664,48.041843979966416,High,True
B-575,isobutyl vinyl ether,"InChI=1S/C6H12O/c1-4-7-5-6(2)3/h4,6H,1,5H2,2-3H3",OZCMOJQQLBXBKI-UHFFFAOYSA-N,CC(C)COC=C,-1.5236,0.3098830776999999,2,G3,100.161,1.8025,30.986999999999984,7.0,1.0,0.0,1.0,3.0,42.0,0.0,0.0,0.0,0.0,9.23,44.98790379713521,2.8099823316091586,48.14170945007629,High,True
B-592,sec-butylacetate,"InChI=1S/C6H12O2/c1-5(2)4-8-6(3)7/h5H,4H2,1-3H3",GJRQTCIYDGXPES-UHFFFAOYSA-N,CC(C)COC(C)=O,-1.2657,0.0436419851378588,3,G5,116.15999999999998,1.2055,31.470999999999982,8.0,2.0,0.0,2.0,2.0,48.0,0.0,0.0,0.0,0.0,26.3,49.83902892936324,3.0500782919131915,76.59772060569361,High,True
B-596,isoamyl formate,"InChI=1S/C6H12O2/c1-6(2)3-4-8-5-7/h5-6H,3-4H2,1-2H3",XKYICAQFSCFURC-UHFFFAOYSA-N,CC(C)CCOC=O,-1.5206,0.0131999999999999,2,G3,116.15999999999998,1.2055,31.470999999999982,8.0,2.0,0.0,2.0,4.0,48.0,0.0,0.0,0.0,0.0,26.3,49.83902892936323,2.814002148389726,59.54887502163469,High,True
B-600,"1,4-dichloro-2-butene(trans)","InChI=1S/C4H6Cl2/c5-3-1-2-4-6/h1-2H,3-4H2/b2-1+",FQDIANVAWVHZIR-OWOJBTEDSA-N,ClC/C=C/CCl,-2.1675,0.0829999999999999,2,G3,124.998,2.0202,30.57999999999999,6.0,0.0,0.0,2.0,2.0,36.0,0.0,0.0,0.0,0.0,0.0,47.75100679259846,2.734385993561548,34.81274391313339,High,True
B-620,decanedioic acid,"InChI=1S/C10H18O4/c11-9(12)7-5-3-1-2-4-6-8-10(13)14/h1-8H2,(H,11,12)(H,13,14)",CXMXRPHRNRROMY-UHFFFAOYSA-N,OC(=O)CCCCCCCCC(O)=O,-2.3059,0.3248702560000001,2,G3,202.25,2.2764,52.20760000000004,14.0,2.0,2.0,4.0,9.0,82.0,0.0,0.0,0.0,0.0,74.6,83.93524176187861,2.9895441287192144,156.96081175542733,High,True
B-634,n-nonane,"InChI=1S/C9H20/c1-3-5-7-9-8-6-4-2/h3-9H2,1-2H3",BKIMMITUMNQMOS-UHFFFAOYSA-N,CCCCCCCCC,-5.7657,0.05715,2,G3,128.259,3.7569000000000026,43.667000000000016,9.0,0.0,0.0,0.0,6.0,56.0,0.0,0.0,0.0,0.0,0.0,59.658787943002416,2.595082706793886,33.30296890880646,Low,False
B-638,bis(2-chloroethoxy)methane,InChI=1S/C5H10Cl2O2/c6-1-3-8-5-9-4-2-7/h1-5H2,NLXGURFLBLRZRO-UHFFFAOYSA-N,ClCCOCOCCCl,-1.3461,0.0239870792,2,G3,173.039,1.4547,38.211000000000006,9.0,2.0,0.0,4.0,6.0,56.0,0.0,0.0,0.0,0.0,18.46,65.03264239819308,2.595082706793886,46.22265344735047,High,True
B-669,tri-2-chloroethyl phosphate,"InChI=1S/C6H12Cl3O4P/c7-1-4-11-14(10,12-5-2-8)13-6-3-9/h1-6H2",HQUQLFOMPYWACS-UHFFFAOYSA-N,ClCCO[P](=O)(OCCCl)OCCCl,-1.6105,0.02744607035,2,G3,285.491,2.8607000000000014,57.62250000000002,14.0,4.0,0.0,8.0,9.0,86.0,0.0,0.0,0.0,0.0,44.760000000000005,98.36400664345334,3.965945885084293,151.93022690019149,High,True
B-671,aldicarb,"InChI=1S/C7H14N2O2S/c1-7(2,12-4)5-9-11-6(10)8-3/h5H,1-4H3,(H,8,10)/b9-5+",QGLZXHRNAYXIBU-WEVVVXLNSA-N,CNC(=O)O\N=C\C(C)(C)SC,-1.4991,0.0545500000000001,2,G3,190.268,1.4698,51.62670000000003,12.0,4.0,1.0,5.0,3.0,70.0,0.0,0.0,0.0,0.0,50.69,76.72630423807122,3.8317472942012736,180.2451893497452,High,True
B-690,4-chloro-1-nitro-2(trifluoromethyl)benzene,"InChI=1S/C7H3ClF3NO2/c8-4-1-2-6(12(13)14)5(3-4)7(9,10)11/h1-3H",CFPIGEXZPWTNOR-UHFFFAOYSA-N,[O-][N+](=O)c1ccc(Cl)cc1C(F)(F)F,-3.3533,0.1126803369499998,2,G3,225.55299999999997,3.2670000000000003,43.1084,14.0,2.0,0.0,7.0,1.0,76.0,1.0,0.0,0.0,1.0,43.14,81.24919339205375,3.3771158134046155,377.6879236408014,High,True
B-703,"benzaldehyde, 3,4-dimethoxy-","InChI=1S/C9H10O3/c1-11-8-4-3-7(6-10)5-9(8)12-2/h3-6H,1-2H3",WJUFSDZVCOTFON-UHFFFAOYSA-N,COc1ccc(C=O)cc1OC,-1.4199,0.1864629189,2,G3,166.17599999999996,1.5162999999999998,44.93350000000002,12.0,3.0,0.0,3.0,3.0,64.0,1.0,0.0,0.0,1.0,35.53,70.9148420217443,3.097737020758659,281.102178757748,High,True
B-714,"1,3,5,-trinitrohexahydro-1,3,5-triazine",InChI=1S/C3H6N6O6/c10-7(11)4-1-5(8(12)13)3-6(2-4)9(14)15/h1-3H2,XTFIVUDBNACUBN-UHFFFAOYSA-N,[O-][N+](=O)N1CN(CN(C1)[N+]([O-])=O)[N+]([O-])=O,-3.5706,0.1035745816173713,3,G5,222.117,-1.6463999999999996,41.10120000000002,15.0,6.0,0.0,12.0,3.0,84.0,0.0,1.0,1.0,1.0,139.14,81.61214034190796,2.7681908301661284,251.6934821381869,High,True
B-719,2-anilinoethanol,"InChI=1S/C8H11NO/c10-7-6-9-8-4-2-1-3-5-8/h1-5,9-10H,6-7H2",MWGATWIBSKHFMR-UHFFFAOYSA-N,OCCNc1ccccc1,-0.4745,0.01721610625,2,G3,137.182,1.0908,42.01750000000002,10.0,2.0,2.0,2.0,3.0,54.0,1.0,0.0,0.0,1.0,32.26,60.50538328409423,2.4265223465879537,173.872282370036,High,True
B-726,"3-methylene-7-methyl-1,6-octadiene  (myrcene)","InChI=1S/C10H16/c1-5-10(4)8-6-7-9(2)3/h5,7H,1,4,6,8H2,2-3H3",UAHWPYUMFXYFJY-UHFFFAOYSA-N,CC(C)=CCCC(=C)C=C,-4.3861,0.0220238713,2,G3,136.238,3.4750000000000023,48.00200000000003,10.0,0.0,0.0,0.0,4.0,56.0,0.0,0.0,0.0,0.0,0.0,63.954920960846245,3.4629046970868087,145.42124551085624,Medium,False
B-734,isoamyl acetate,"InChI=1S/C7H14O2/c1-6(2)4-5-9-7(3)8/h6H,4-5H2,1-3H3",MLFHJEHSLIIPHL-UHFFFAOYSA-N,CC(C)CCOC(C)=O,-1.8135,0.05325,2,G3,130.18699999999998,1.5956,36.088,9.0,2.0,0.0,2.0,3.0,54.0,0.0,0.0,0.0,0.0,26.3,56.20397104375984,3.006105030052141,86.91694057588533,High,True
B-737,diethylene glycol monobutyl ether acetate,"InChI=1S/C10H20O4/c1-3-4-5-12-6-7-13-8-9-14-10(2)11/h3-9H2,1-2H3",VXQBJTKSVGFQOL-UHFFFAOYSA-N,CCCCOCCOCCOC(C)=O,-0.8188,0.15739194475,2,G3,204.266,1.3828,53.179000000000045,14.0,4.0,0.0,4.0,9.0,84.0,0.0,0.0,0.0,0.0,44.760000000000005,85.52588784596342,2.884064614706359,136.08368795993283,High,True
B-751,dipentaerythritol,"InChI=1S/C10H22O7/c11-1-9(2-12,3-13)7-17-8-10(4-14,5-15)6-16/h11-16H,1-8H2",TXBCBTDQIULDIA-UHFFFAOYSA-N,OCC(CO)(CO)COCC(CO)(CO)CO,-1.9582,0.03344962655,2,G3,254.27899999999997,-3.070399999999999,58.199800000000046,17.0,7.0,6.0,7.0,10.0,104.0,0.0,0.0,0.0,0.0,130.61,99.90267780008196,4.276302630183746,152.56410964170607,High,True
B-799,"3,4-dihydroxybenzaldehyde","InChI=1S/C7H6O3/c8-4-5-1-2-6(9)7(10)3-5/h1-4,9-10H",IBGBGRVKPALMCQ-UHFFFAOYSA-N,Oc1ccc(C=O)cc1O,-1.3402,0.4501,2,G3,138.122,0.9103,35.1591,10.0,3.0,2.0,3.0,1.0,52.0,1.0,0.0,0.0,1.0,57.53,57.54633483832936,3.158901732156222,255.0281739221536,High,True
B-804,"1,2-ethanediamine, n,n'-bis(phenylmethyl)-","InChI=1S/C16H20N2/c1-3-7-15(8-4-1)13-17-11-12-18-14-16-9-5-2-6-10-16/h1-10,17-18H,11-14H2",JUHORIMYRDESRB-UHFFFAOYSA-N,C(CNCc1ccccc1)NCc2ccccc2,-1.7865,0.28825,2,G3,240.35,2.5660000000000007,76.29740000000004,18.0,2.0,2.0,2.0,7.0,94.0,2.0,0.0,0.0,2.0,24.06,109.04799015036352,1.5431740953316218,381.8646528682864,High,True
B-811,diethyl maleate,"InChI=1S/C8H12O4/c1-3-11-7(9)5-6-8(10)12-4-2/h5-6H,3-4H2,1-2H3/b6-5-",IEPRKVQEAMIZSS-WAYWQWQTSA-N,CCOC(=O)\C=C/C(=O)OCC,-1.0899,0.01120739,2,G3,172.17999999999995,0.6688,42.40600000000002,12.0,4.0,0.0,4.0,4.0,68.0,0.0,0.0,0.0,0.0,52.60000000000001,71.15437745552283,3.728160409956725,163.49688176536182,High,True
B-819,malonic acid,"InChI=1S/C3H4O4/c4-2(5)1-3(6)7/h1H2,(H,4,5)(H,6,7)",OFOBLEOULBTSOW-UHFFFAOYSA-N,OC(=O)CC(O)=O,0.8652,0.1523999999999999,2,G3,104.061,-0.4543,19.8886,7.0,2.0,2.0,4.0,2.0,40.0,0.0,0.0,0.0,0.0,74.6,39.38064696110232,3.318019590380522,83.10802962390817,High,True
B-821,2-thiouracil,"InChI=1S/C4H4N2OS/c7-3-1-2-5-4(8)6-3/h1-2H,(H2,5,6,7,8)",ZEMGGZBWXRYJHK-UHFFFAOYSA-N,O=C1NC(=S)NC=C1,-2.2573,0.0078500000000001,2,G3,128.156,0.4324899999999999,32.247400000000006,8.0,2.0,2.0,4.0,0.0,42.0,1.0,0.0,0.0,1.0,48.65,50.39100142863863,3.5021170388304435,248.361953762075,High,True
B-835,"1,3-dioxolane-4,4-diacetic acid, 5-oxo-","InChI=1S/C7H8O7/c8-4(9)1-7(2-5(10)11)6(12)13-3-14-7/h1-3H2,(H,8,9)(H,10,11)",PXPMCAKTYKAROX-UHFFFAOYSA-N,OC(=O)CC1(CC(O)=O)OCOC1=O,-0.611,0.0095,2,G3,204.134,-0.7944999999999998,39.280600000000014,14.0,5.0,2.0,7.0,4.0,78.0,0.0,1.0,1.0,1.0,110.13,78.22319682421706,2.8308892123975444,265.7628977173992,High,True
B-841,dl-allothreonine,"InChI=1S/C4H9NO3/c1-2(6)3(5)4(7)8/h2-3,6H,5H2,1H3,(H,7,8)",AYFVYJQAPQTCCC-UHFFFAOYSA-N,CC(O)C(N)C(O)=O,0.067,0.1445291532172583,4,G5,119.12,-1.2208999999999997,27.291999999999994,8.0,3.0,3.0,4.0,2.0,48.0,0.0,0.0,0.0,0.0,83.55000000000001,46.92395767246788,3.637682547839839,91.28421251514428,High,True
B-851,sodium succinate,"InChI=1S/C4H6O4.2Na/c5-3(6)1-2-4(7)8;;/h1-2H2,(H,5,6)(H,7,8);;/q;2*+1/p-2",ZDQYSKICYIVCPN-UHFFFAOYSA-L,[Na+].[Na+].[O-]C(=O)CCC([O-])=O,0.0914,0.2525764580245457,4,G5,162.052,-8.725600000000002,19.247999999999998,10.0,4.0,0.0,6.0,3.0,46.0,0.0,0.0,0.0,0.0,80.25999999999999,102.57238832092288,-2.449999807500016e-07,99.82521876648654,High,True
B-868,benzo(k)fluoranthene,InChI=1S/C20H12/c1-2-6-15-12-19-17-10-4-8-13-7-3-9-16(20(13)17)18(19)11-14(15)5-1/h1-12H,HAXBIWFMXWRORI-UHFFFAOYSA-N,c1ccc2cc3c4cccc5cccc(c3cc2c1)c45,-8.4989,0.0105499999999993,2,G3,252.316,5.640400000000003,85.88400000000003,20.0,0.0,0.0,0.0,0.0,92.0,4.0,0.0,1.0,5.0,0.0,116.8459952355022,2.022617790879174,915.8657323868964,Low,False
B-905,bromacil,"InChI=1S/C9H13BrN2O2/c1-4-5(2)12-8(13)7(10)6(3)11-9(12)14/h5H,4H2,1-3H3,(H,11,14)",CTSLUCNDVMMDHG-UHFFFAOYSA-N,CCC(C)N1C(=O)NC(=C(Br)C1=O)C,-2.5057,0.00865,2,G3,261.119,1.57852,58.76170000000002,14.0,3.0,1.0,5.0,2.0,78.0,1.0,0.0,0.0,1.0,54.86,90.09597294569724,3.5290815358714664,447.1056682573318,High,True
B-908,isoleucine,"InChI=1S/C6H13NO2/c1-3-4(2)5(7)6(8)9/h4-5H,3,7H2,1-2H3,(H,8,9)",AGPKZVBTJJNPAG-UHFFFAOYSA-N,CCC(C)C(N)C(O)=O,-0.5033,0.0746,2,G3,131.17499999999998,0.4443999999999999,35.06619999999998,9.0,2.0,2.0,3.0,3.0,54.0,0.0,0.0,0.0,0.0,63.32,54.85960814906508,3.716136771182721,103.23098268032228,High,True
B-916,leucine,"InChI=1S/C6H13NO2/c1-4(2)3-5(7)6(8)9/h4-5H,3,7H2,1-2H3,(H,8,9)",ROHFNLRQFUQHCH-UHFFFAOYSA-N,CC(C)CC(N)C(O)=O,-1.0456,0.1616350672074675,4,G5,131.17499999999998,0.4443999999999999,35.06619999999998,9.0,2.0,2.0,3.0,3.0,54.0,0.0,0.0,0.0,0.0,63.32,54.85960814906508,3.5016884512730915,101.23098268032228,High,True
B-939,ethisterone,"InChI=1S/C21H28O2/c1-4-21(23)12-9-18-16-6-5-14-13-15(22)7-10-19(14,2)17(16)8-11-20(18,21)3/h1,13,16-18,23H,5-12H2,2-3H3/t16-,17+,18+,19+,20+,21+/m1/s1",CHNXZKVNWQUJIB-CEGNMAFCSA-N,C[C@]12CCC(=O)C=C1CC[C@@H]3[C@@H]2CC[C@@]4(C)[C@H]3CC[C@@]4(O)C#C,-5.6576,0.1973524648999998,2,G3,312.45300000000003,3.8826000000000023,90.49280000000005,23.0,2.0,1.0,2.0,0.0,124.0,0.0,3.0,4.0,4.0,37.3,139.2801469135596,1.7024099249747309,626.2430525943431,Low,False
B-976,cholanthrene,"InChI=1S/C20H14/c1-2-7-16-13(4-1)8-10-17-18-11-9-14-5-3-6-15(20(14)18)12-19(16)17/h1-8,10,12H,9,11H2",KVFJBIQWENJTDM-UHFFFAOYSA-N,C1Cc2c3ccc4ccccc4c3cc5cccc1c25,-7.8613,0.0056500000000001,2,G3,254.332,5.244800000000003,86.36800000000004,20.0,0.0,0.0,0.0,0.0,94.0,4.0,0.0,1.0,5.0,0.0,117.20044978996656,2.102237440474606,992.7859948151674,Low,False
B-983,"2,4,6(1h,3h,5h)-pyrimidinetrione, 5-nitro-","InChI=1S/C4H3N3O5/c8-2-1(7(11)12)3(9)6-4(10)5-2/h1H,(H2,5,6,8,9,10)",ABICJYZKIYUWEE-UHFFFAOYSA-N,[O-][N+](=O)C1C(=O)NC(=O)NC1=O,-2.2840000000000003,0.0179999999999997,2,G3,173.084,-2.0023,32.46379999999999,12.0,5.0,2.0,8.0,1.0,64.0,0.0,1.0,1.0,1.0,118.41,65.06551260733733,2.878898348986729,264.4179197494528,High,True
B-1017,citraconic acid,"InChI=1S/C5H6O4/c1-3(5(8)9)2-4(6)7/h2H,1H3,(H,6,7)(H,8,9)/b3-2-",HNEGQIOMVPPMNR-IHWYPQMZSA-N,C\C(=C\C(O)=O)C(O)=O,0.7795,0.24025,2,G3,130.099,0.1018999999999999,29.02859999999999,9.0,2.0,2.0,4.0,2.0,50.0,0.0,0.0,0.0,0.0,74.6,51.42092815771127,4.169214533734282,167.79680833403847,High,True
B-1030,2-aminopyridine,"InChI=1S/C5H6N2/c6-5-3-1-2-4-7-5/h1-4H,(H2,6,7)",ICSNLGPSRYBMBD-UHFFFAOYSA-N,Nc1ccccn1,0.9757,0.0253159622499999,2,G3,94.117,0.6638000000000001,28.6494,7.0,2.0,1.0,2.0,0.0,36.0,1.0,0.0,0.0,1.0,38.91,41.9909417974562,3.0214653097240864,136.00750422530467,High,True
B-1032,suberic acid,"InChI=1S/C8H14O4/c9-7(10)5-3-1-2-4-6-8(11)12/h1-6H2,(H,9,10)(H,11,12)",TYFQFVWCELRYAO-UHFFFAOYSA-N,OC(=O)CCCCCCC(O)=O,-1.1673,0.43635,2,G3,174.196,1.4962000000000002,42.97360000000001,12.0,2.0,2.0,4.0,7.0,70.0,0.0,0.0,0.0,0.0,74.6,71.20535753308538,3.0073056362946597,135.1368500605771,High,True
B-1038,borneol,"InChI=1S/C10H18O/c1-9(2)7-4-5-10(9,3)8(11)6-7/h7-8,11H,4-6H2,1-3H3",DTGKSKDOIYIVQL-UHFFFAOYSA-N,CC1(C)C2CCC1(C)C(O)C2,-2.3202,0.2149000000000001,2,G3,154.253,2.1935,45.23580000000002,11.0,1.0,1.0,1.0,0.0,64.0,0.0,2.0,2.0,2.0,20.23,68.80630150253657,2.396254979141823,185.3117986128446,High,True
B-1061,dl-valine,"InChI=1S/C5H11NO2/c1-3(2)4(6)5(7)8/h3-4H,6H2,1-2H3,(H,7,8)",KZSNJWFQEVHDMF-UHFFFAOYSA-N,CC(C)C(N)C(O)=O,-0.1971,0.0737282260447095,3,G5,117.14799999999998,0.0543,30.44919999999999,8.0,2.0,2.0,3.0,2.0,48.0,0.0,0.0,0.0,0.0,63.32,48.49466603466847,3.637682547839839,90.42945954287092,High,True
B-1072,propranolol,"InChI=1S/C16H21NO2/c1-12(2)17-10-14(18)11-19-16-9-5-7-13-6-3-4-8-15(13)16/h3-9,12,14,17-18H,10-11H2,1-2H3",AQHHHDLHHXJYJD-UHFFFAOYSA-N,CC(C)NCC(O)COc1cccc2ccccc12,-3.6202,0.2117923721215872,3,G5,259.34900000000005,2.577500000000001,78.58850000000005,19.0,3.0,2.0,3.0,6.0,102.0,2.0,0.0,0.0,2.0,41.49,113.76036150292278,1.977941782307114,519.6427894422642,High,True
B-1083,trimellitic acid,"InChI=1S/C9H6O6/c10-7(11)4-1-2-5(8(12)13)6(3-4)9(14)15/h1-3H,(H,10,11)(H,12,13)(H,14,15)",ARCGXLSVLAOJQL-UHFFFAOYSA-N,OC(=O)c1ccc(C(O)=O)c(c1)C(O)=O,-1.0003,0.30015,2,G3,210.141,0.7811999999999999,47.3199,15.0,3.0,3.0,6.0,3.0,78.0,1.0,0.0,0.0,1.0,111.9,83.39349701940613,3.3963489782409875,447.9158332869801,High,True
B-1092,"1,2-propanediol, 3-(2-methoxyphenoxy)-, 1-carbam","InChI=1S/C11H15NO5/c1-15-9-4-2-3-5-10(9)16-6-8(13)7-17-11(12)14/h2-5,8,13H,6-7H2,1H3,(H2,12,14)",GNXFOGHNGIVQEH-UHFFFAOYSA-N,COc1ccccc1OCC(O)COC(N)=O,-1.5251,0.2700499999999999,2,G3,241.24299999999997,0.5302000000000002,60.03120000000003,17.0,5.0,2.0,6.0,6.0,94.0,1.0,0.0,0.0,1.0,91.01,98.89239592925314,2.410758340400568,368.6343524510428,High,True
B-1098,dmtt (dazomet),"InChI=1S/C5H10N2S2/c1-6-3-7(2)5(8)9-4-6/h3-4H2,1-2H3",QAYICIQNSGETAS-UHFFFAOYSA-N,CN1CSC(=S)N(C)C1,-1.7331,0.1984499999999999,2,G3,162.283,0.7967,45.44900000000002,9.0,3.0,0.0,4.0,0.0,52.0,0.0,1.0,1.0,1.0,6.48,65.19474594486361,2.438362799199123,126.12640240679956,High,True
B-1105,digallic acid,"InChI=1S/C14H10O9/c15-7-2-6(3-8(16)11(7)18)14(22)23-10-4-5(13(20)21)1-9(17)12(10)19/h1-4,15-19H,(H,20,21)",COVFEVWNJUOYRL-UHFFFAOYSA-N,OC(=O)c1cc(O)c(O)c(OC(=O)c2cc(O)c(O)c(O)c2)c1,-2.8092,0.0096,2,G3,322.225,1.1319999999999997,73.1258,23.0,8.0,6.0,9.0,3.0,120.0,2.0,0.0,0.0,2.0,164.75,127.42037349712471,2.390995742087407,787.1306201236207,High,True
B-1106,4-ethylpyridine,"InChI=1S/C7H9N/c1-2-7-3-5-8-6-4-7/h3-6H,2H2,1H3",VJXRKZJMGVSXPX-UHFFFAOYSA-N,CCc1ccncc1,-0.0006,0.4138,2,G3,107.15599999999998,1.644,33.614999999999995,8.0,1.0,0.0,1.0,1.0,42.0,1.0,0.0,0.0,1.0,12.89,49.380935329236685,2.8320858350070908,145.73281445033504,High,True
B-1115,ethyl valerate,"InChI=1S/C7H14O2/c1-3-5-6-7(8)9-4-2/h3-6H2,1-2H3",ICMAFTSLXCXHRK-UHFFFAOYSA-N,CCCCC(=O)OCC,-1.7706,0.2309999326599228,3,G5,130.18699999999998,1.7397,36.158,9.0,2.0,0.0,2.0,4.0,54.0,0.0,0.0,0.0,0.0,26.3,56.20397104375984,3.0613168393721577,78.98533616859814,High,True
B-1123,"2,2,4-trimethylpentane","InChI=1S/C8H18/c1-7(2)6-8(3,4)5/h7H,6H2,1-5H3",NHTMVDHEPJAVLT-UHFFFAOYSA-N,CC(C)CC(C)(C)C,-4.6704,0.0378000000000002,2,G3,114.232,3.0786000000000016,38.91,8.0,0.0,0.0,0.0,1.0,50.0,0.0,0.0,0.0,0.0,0.0,53.29384582860579,3.388924101358251,54.92878689342032,Low,False
B-1130,"butanoic acid, 3-amino-","InChI=1S/C4H9NO2/c1-3(5)2-4(6)7/h3H,2,5H2,1H3,(H,6,7)",OQEBBZSWEGYTPG-UHFFFAOYSA-N,CC(N)CC(O)=O,0.9867,0.04665,2,G3,103.12099999999998,-0.1917,25.9022,7.0,2.0,2.0,3.0,2.0,42.0,0.0,0.0,0.0,0.0,63.32,42.12972392027186,3.126006652390634,70.09004635215048,High,True