ID,Name,InChI,InChIKey,SMILES,Solubility,SD,Ocurrences,Group,MolWt,MolLogP,MolMR,HeavyAtomCount,NumHAcceptors,NumHDonors,NumHeteroatoms,NumRotatableBonds,NumValenceElectrons,NumAromaticRings,NumSaturatedRings,NumAliphaticRings,RingCount,TPSA,LabuteASA,BalabanJ,BertzCT,bin,is_sol
E-419,p-hydroxybenzoic_acid,"InChI=1S/C7H6O3/c8-6-3-1-5(2-4-6)7(9)10/h1-4,8H,(H,9,10)",FJKROLUGYXJWQN-UHFFFAOYSA-N,O=C(O)c(ccc(O)c1)c1,-1.41,0.0479504362998921,4,G5,138.122,1.0903999999999998,35.066100000000006,10.0,2.0,2.0,3.0,1.0,52.0,1.0,0.0,0.0,1.0,57.53,57.54633483832936,3.003400684579818,237.53306142431708,High,True
E-434,o-chlorobenzoic_acid,"InChI=1S/C7H5ClO2/c8-6-4-2-1-3-5(6)7(9)10/h1-4H,(H,9,10)",IKCLCGXPQILATA-UHFFFAOYSA-N,O=C(O)c(c(ccc1)Cl)c1,-1.89,0.0840041797901879,3,G5,156.56799999999998,2.0382,38.41130000000001,10.0,1.0,1.0,3.0,1.0,52.0,1.0,0.0,0.0,1.0,37.3,63.05536731301503,3.1529414466808685,257.53794892648057,High,True
E-436,bis-(2-chloroethyl)_ether,InChI=1S/C4H8Cl2O/c5-1-3-7-4-2-6/h1-4H2,ZNSMNVMLTJELDZ-UHFFFAOYSA-N,ClCCOCCCl,-1.12,0.0923586137366601,4,G5,143.013,1.4806,32.258999999999986,7.0,1.0,0.0,3.0,4.0,44.0,0.0,0.0,0.0,0.0,9.23,53.5541550542896,2.447472887876344,28.870765403276856,High,True
E-455,benzidine,"InChI=1S/C12H12N2/c13-11-5-1-9(2-6-11)10-3-7-12(14)8-4-10/h1-8H,13-14H2",HFACYLZERDEVSX-UHFFFAOYSA-N,Nc(ccc(c(ccc(N)c1)c1)c2)c2,-2.7,0.0287499999999998,2,G3,184.242,2.5180000000000007,60.70280000000001,14.0,2.0,2.0,2.0,1.0,70.0,2.0,0.0,0.0,2.0,52.04,83.16827871958644,2.396509039726096,371.5796467381504,High,True
E-459,pyridine,InChI=1S/C5H5N/c1-2-4-6-5-3-1/h1-5H,JUJWROOIHBZHMG-UHFFFAOYSA-N,c1ccccn1,0.76,0.1708999999999999,2,G3,79.102,1.0816,24.23699999999999,6.0,1.0,0.0,1.0,0.0,30.0,1.0,0.0,0.0,1.0,12.89,36.65105110044348,3.000000000000001,75.86113958768547,High,True
E-486,cocaine,"InChI=1S/C17H21NO4/c1-18-12-8-9-13(18)15(17(20)21-2)14(10-12)22-16(19)11-6-4-3-5-7-11/h3-7,12-15H,8-10H2,1-2H3",ZPUCINDJVBIVPJ-UHFFFAOYSA-N,COC(=O)C1C(CC2CCC1N2C)OC(=O)c3ccccc3,-2.23,0.0758653778449402,3,G5,303.358,1.8676999999999997,80.34150000000005,22.0,5.0,0.0,5.0,3.0,118.0,1.0,2.0,2.0,3.0,55.84,129.7440724001059,1.7896528798720672,559.0371822548029,High,True
E-494,Diethylstilbestrol,"InChI=1S/C18H20O2/c1-3-17(13-5-9-15(19)10-6-13)18(4-2)14-7-11-16(20)12-8-14/h5-12,19-20H,3-4H2,1-2H3",RGLYKWWBQGJZGM-UHFFFAOYSA-N,Oc(ccc(C(=C(c(ccc(O)c1)c1)CC)CC)c2)c2,-4.35,0.1399999999999996,2,G3,268.356,4.828600000000003,83.60960000000004,20.0,2.0,2.0,2.0,4.0,104.0,2.0,0.0,0.0,2.0,40.46,119.57701448414844,2.5215177387949934,536.8202783238603,Medium,False
E-496,strychnine,"InChI=1S/C21H22N2O2/c24-18-10-16-19-13-9-17-21(6-7-22(17)11-12(13)5-8-25-16)14-3-1-2-4-15(14)23(18)20(19)21/h1-5,13,16-17,19-20H,6-11H2",QMGVPVSNSZLJIA-UHFFFAOYSA-N,O=C(N(c(c(C1(C(N(C2)CC(C3C4C5OC6)=C6)C3)C2)ccc7)c7)C14)C5,-3.32,0.4407821331325588,3,G5,334.419,2.0925,93.40900000000003,25.0,3.0,0.0,4.0,0.0,128.0,1.0,4.0,6.0,7.0,32.78,146.97567955204383,1.5524232297011886,848.052733715765,High,True
E-521,phenallymal,"InChI=1S/C13H12N2O3/c1-2-8-13(9-6-4-3-5-7-9)10(16)14-12(18)15-11(13)17/h2-7H,1,8H2,(H2,14,15,16,17,18)",WOIGZSBYKGQJGL-UHFFFAOYSA-N,c1ccccc1C2(CC=C)C(=O)NC(=O)NC2=O,-2.18,0.0969681906606492,4,G5,244.25,0.8664999999999998,64.61540000000002,18.0,3.0,2.0,5.0,3.0,92.0,1.0,1.0,1.0,2.0,75.27000000000001,103.87485440190714,2.560321214073008,502.2977111302937,High,True
E-530,ephedrine,"InChI=1S/C10H15NO/c1-8(11-2)10(12)9-6-4-3-5-7-9/h3-8,10-12H,1-2H3",KWGRBVOPPLSCSI-UHFFFAOYSA-N,OC(c(cccc1)c1)C(NC)C,-0.42,0.0492160768674446,3,G5,165.23599999999996,1.3279,49.92350000000003,12.0,2.0,2.0,2.0,3.0,66.0,1.0,0.0,0.0,1.0,32.26,73.23526751288745,2.711040723233061,222.5400055614587,High,True
E-562,uracil,"InChI=1S/C4H4N2O2/c7-3-1-2-5-4(8)6-3/h1-2H,(H2,5,6,7,8)",ISAKRJDGNUQOIC-UHFFFAOYSA-N,C1=CC(=O)NC(=O)N1,-1.48,0.00665,2,G3,112.08799999999998,-0.9368,27.6834,8.0,2.0,2.0,4.0,0.0,42.0,1.0,0.0,0.0,1.0,65.72,44.19374328147752,3.502117038830443,246.36195376207496,High,True
E-579,4-aminophenol,"InChI=1S/C6H7NO/c7-5-1-3-6(8)4-2-5/h1-4,8H,7H2",PLIKAWJENQZMHA-UHFFFAOYSA-N,Oc(ccc(N)c1)c1,-0.8,0.0168999999999999,2,G3,109.128,0.9744,32.519200000000005,8.0,2.0,2.0,2.0,0.0,42.0,1.0,0.0,0.0,1.0,46.25,47.56552756870569,3.0324555320336755,147.38833891467198,High,True
E-597,acetanilide,"InChI=1S/C8H9NO/c1-7(10)9-8-5-3-2-4-6-8/h2-6H,1H3,(H,9,10)",FZERHIULMFGESH-UHFFFAOYSA-N,O=C(Nc(cccc1)c1)C,-1.33,0.0410582513022656,3,G5,135.16599999999997,1.645,40.74570000000002,10.0,1.0,1.0,2.0,1.0,52.0,1.0,0.0,0.0,1.0,29.1,59.872671631941984,2.6742416022951265,217.9590174505521,High,True
E-601,codeine,"InChI=1S/C18H21NO3/c1-19-8-7-18-11-4-5-13(20)17(18)22-16-14(21-2)6-3-10(15(16)18)9-12(11)19/h3-6,11-13,17,20H,7-9H2,1-2H3",OROGSEYTTFOCAN-UHFFFAOYSA-N,COc1ccc2CC5C3C=CC(O)C4Oc1c2C34CCN5C,-1.52,0.4315089802078282,3,G5,299.37000000000006,1.5011,82.46380000000003,22.0,4.0,1.0,4.0,1.0,116.0,1.0,1.0,4.0,5.0,41.93,129.87893872736822,1.8223654238415252,685.154996148535,High,True
E-602,1-nitropropane,"InChI=1S/C3H7NO2/c1-2-3-4(5)6/h2-3H2,1H3",JSZOAYXJRCEYSX-UHFFFAOYSA-N,CCCN(=O)=O,-0.8,0.0131499999999999,2,G3,89.09399999999998,0.6731,22.1524,6.0,2.0,0.0,3.0,2.0,36.0,0.0,0.0,0.0,0.0,43.14,36.12211097912257,2.831257109931365,52.75488750216347,High,True
E-603,nitrobenzene,InChI=1S/C6H5NO2/c8-7(9)6-4-2-1-3-5-6/h1-5H,LQNUZADURLCDLV-UHFFFAOYSA-N,O=N(=O)c(cccc1)c1,-1.8,0.0217564096362481,4,G5,123.11099999999996,1.5948,33.0964,9.0,2.0,0.0,3.0,1.0,46.0,1.0,0.0,0.0,1.0,43.14,52.08437884199676,2.981454614041131,207.5576620543373,High,True
E-655,prometryn,"InChI=1S/C11H12NO4PS2/c1-15-17(18,16-2)19-7-12-10(13)8-5-3-4-6-9(8)11(12)14/h3-6H,7H2,1-2H3",LMNZTLDVJIUSHT-UHFFFAOYSA-N,COP(=S)(OC)SCN2C(=O)c1ccccc1C2=O,-4.1,0.00705,2,G3,317.32800000000003,2.4906000000000006,77.70300000000003,19.0,6.0,0.0,8.0,5.0,102.0,1.0,0.0,1.0,2.0,55.84,119.72520336082496,2.1502393965191056,534.5685423942925,Medium,False
E-660,DEF,"InChI=1S/C12H27OPS3/c1-4-7-10-15-14(13,16-11-8-5-2)17-12-9-6-3/h4-12H2,1-3H3",ZOKXUAHZSKEQSS-UHFFFAOYSA-N,O=P(SCCCC)(SCCCC)SCCCC,-5.14,0.2471499999999999,2,G3,314.5220000000001,6.694400000000005,89.70450000000005,17.0,4.0,0.0,5.0,12.0,104.0,0.0,0.0,0.0,0.0,17.07,119.65829813173688,3.998982972846674,178.6432094953352,Low,False
E-664,deoxycholic_acid,"InChI=1S/C24H40O4/c1-14(4-9-22(27)28)18-7-8-19-17-6-5-15-12-16(25)10-11-23(15,2)20(17)13-21(26)24(18,19)3/h14-21,25-26H,4-13H2,1-3H3,(H,27,28)",KXGVEGMKQFWNSR-UHFFFAOYSA-N,O=C(O)CCC(C(C(C(C(C(C(C(C1)CC(O)C2)(C2)C)C3)C1)C4)(C3O)C)C4)C,-3.95,0.4034297405441938,3,G5,392.58000000000027,4.477900000000004,108.64740000000008,28.0,3.0,3.0,4.0,4.0,160.0,0.0,4.0,4.0,4.0,77.76,169.65381840146642,1.562527921263527,605.412568486979,Medium,False
E-674,4-bromoacetanilide,"InChI=1S/C8H8BrNO/c1-6(11)10-8-4-2-7(9)3-5-8/h2-5H,1H3,(H,10,11)",MSLICLMCQYQNPK-UHFFFAOYSA-N,O=C(Nc(ccc(c1)Br)c1)C,-3.08,0.0849999999999999,2,G3,214.062,2.4075000000000006,48.445700000000016,11.0,1.0,1.0,3.0,1.0,58.0,1.0,0.0,0.0,1.0,29.1,73.74021923758335,2.736298072105655,255.2994975838911,High,True
E-675,4-fluoroacetanilide,"InChI=1S/C8H8FNO/c1-6(11)10-8-4-2-7(9)3-5-8/h2-5H,1H3,(H,10,11)",JHEFOJNPLXSWNZ-UHFFFAOYSA-N,O=C(Nc(ccc(c1)F)c1)C,-1.78,0.0849999999999999,2,G3,153.15599999999998,1.7841,40.70370000000002,11.0,1.0,1.0,3.0,1.0,58.0,1.0,0.0,0.0,1.0,29.1,64.03820703486822,2.736298072105655,255.2994975838911,High,True
E-677,4-iodoacetanilide,"InChI=1S/C8H8INO/c1-6(11)10-8-4-2-7(9)3-5-8/h2-5H,1H3,(H,10,11)",SIULLDWIXYYVCU-UHFFFAOYSA-N,O=C(Nc(ccc(c1)I)c1)C,-3.25,0.2350000000000001,2,G3,261.062,2.2496,53.46270000000002,11.0,1.0,1.0,3.0,1.0,58.0,1.0,0.0,0.0,1.0,29.1,79.13450975298562,2.736298072105655,255.2994975838911,High,True
E-678,4-methoxyacetanilide,"InChI=1S/C9H11NO2/c1-7(11)10-8-3-5-9(12-2)6-4-8/h3-6H,1-2H3,(H,10,11)",XVAIDCNLVLTVFM-UHFFFAOYSA-N,O=C(Nc(ccc(c1)OC)c1)C,-1.3,0.1298,2,G3,165.19199999999998,1.6536,47.29770000000002,12.0,2.0,1.0,3.0,2.0,64.0,1.0,0.0,0.0,1.0,38.33,71.35115897584546,2.70914782437365,266.3619537620749,High,True
E-680,dibucaine,"InChI=1S/C20H29N3O2/c1-4-7-14-25-19-15-17(16-10-8-9-11-18(16)22-19)20(24)21-12-13-23(5-2)6-3/h8-11,15H,4-7,12-14H2,1-3H3,(H,21,24)",PUFQVTATUTYEAL-UHFFFAOYSA-N,CCCCOc2cc(C(=O)NCCN(CC)CC)c1ccccc1n2,-3.7,0.472977979285388,3,G5,343.471,3.4853000000000023,102.26720000000007,25.0,4.0,1.0,5.0,10.0,136.0,2.0,0.0,0.0,2.0,54.46,149.93184207390345,2.146937510494859,683.69564310788,Medium,False
E-684,isonoruron,"InChI=1S/C13H22N2O/c1-15(2)13(16)14-12-7-8-6-11(12)10-5-3-4-9(8)10/h8-12H,3-7H2,1-2H3,(H,14,16)",YGLMVCVJLXREAK-UHFFFAOYSA-N,O=C(NC1C2C3CCCC3C(C1)C2)N(C)C,-3.01,0.0804500000000001,2,G3,222.332,2.0823,63.05170000000004,16.0,1.0,1.0,3.0,1.0,90.0,0.0,3.0,3.0,3.0,32.34,97.57228089385632,1.6565950963214329,302.3077194006769,High,True
E-689,norethisterone_acetate,"InChI=1S/C22H28O3/c1-4-22(25-14(2)23)12-10-20-19-7-5-15-13-16(24)6-8-17(15)18(19)9-11-21(20,22)3/h1,13,17-20H,5-12H2,2-3H3",IMONTRJLAWHYGT-UHFFFAOYSA-N,CC(=O)OC3(CCC4C2CCC1=CC(=O)CCC1C2CCC34C)C#C,-4.79,0.04,2,G3,340.4630000000001,4.063300000000004,95.42300000000006,25.0,3.0,0.0,3.0,1.0,134.0,0.0,3.0,4.0,4.0,43.370000000000005,150.12592260531085,1.6428371150526675,683.8761264525542,Low,False
E-691,ioxynil,"InChI=1S/C7H3I2NO/c8-5-1-4(3-10)2-6(9)7(5)11/h1-2,11H",NRXQIUSYPAHGNM-UHFFFAOYSA-N,Oc1c(I)cc(C#N)cc1I,-3.61,0.1695098096145339,3,G5,370.915,2.4730799999999995,58.255800000000015,11.0,2.0,1.0,4.0,0.0,56.0,1.0,0.0,0.0,1.0,44.02,91.50683490964556,3.348369660783096,306.6978379924635,High,True
E-697,tetracycline,"InChI=1S/C22H24N2O8/c1-21(31)8-5-4-6-11(25)12(8)16(26)13-9(21)7-10-15(24(2)3)17(27)14(20(23)30)19(29)22(10,32)18(13)28/h4-6,9-10,15,25,27-28,31-32H,7H2,1-3H3,(H2,23,30)",OFVLGDICTFRJMM-UHFFFAOYSA-N,CN(C)C2C1CC4C(=C(O)C1(O)C(=O)C(=C2O)C(N)=O)C(=O)c3c(O)cccc3C4(C)O,-3.12,0.0799999999999998,2,G3,444.4400000000002,-0.2143999999999991,109.5409,32.0,9.0,6.0,10.0,2.0,170.0,1.0,0.0,3.0,4.0,181.62,182.42923685321395,2.0479220271303857,1148.5849748086323,High,True
E-700,diphenamid,"InChI=1S/C16H17NO/c1-17(2)16(18)15(13-9-5-3-6-10-13)14-11-7-4-8-12-14/h3-12,15H,1-2H3",QAHFOPIILNICLA-UHFFFAOYSA-N,CN(C)C(=O)C(c1ccccc1)c2ccccc2,-2.98,0.0147271480229163,3,G5,239.318,2.9067000000000016,73.42100000000005,18.0,1.0,0.0,2.0,3.0,92.0,2.0,0.0,0.0,2.0,20.31,107.8696215533946,2.4521109318132384,465.6348741173285,High,True
E-714,hexyl-4-aminobenzoate,"InChI=1S/C13H19NO2/c1-2-3-4-5-10-16-13(15)11-6-8-12(14)9-7-11/h6-9H,2-5,10,14H2,1H3",UWIGKXXCHKVGHW-UHFFFAOYSA-N,CCCCCCOC(=O)c1ccc(N)cc1,-3.95,0.2799999999999998,2,G3,221.3,3.0059000000000005,65.27890000000004,16.0,3.0,1.0,3.0,6.0,88.0,1.0,0.0,0.0,1.0,52.32,96.6009559468366,2.2702939313664987,319.2094083146762,Medium,False
E-731,megestrol_acetate,"InChI=1S/C24H32O4/c1-14-12-18-19(22(4)9-6-17(27)13-21(14)22)7-10-23(5)20(18)8-11-24(23,15(2)25)28-16(3)26/h12-13,18-20H,6-11H2,1-5H3",RQZAXGRLVPAYTJ-UHFFFAOYSA-N,C1C(=O)C=C2C(C)=CC3C4CCC(C(=O)C)(OC(=O)C)C4(C)CCC3C2(C)C1,-5.35,0.0300000000000002,2,G3,384.5160000000002,4.575300000000004,106.41100000000006,28.0,4.0,0.0,4.0,2.0,152.0,0.0,2.0,4.0,4.0,60.440000000000005,167.32850051010428,1.790031530359441,820.4617842103511,Low,False
E-754,Orotic_Acid,"InChI=1S/C5H4N2O4/c8-3-1-2(4(9)10)6-5(11)7-3/h1H,(H,9,10)(H2,6,7,8,11)",PXQPEWDEAKTCGB-UHFFFAOYSA-N,C1(=O)NC(=O)NC(C(=O)O)=C1,-1.93,0.005,2,G3,156.097,-1.2386,34.642700000000005,11.0,3.0,3.0,6.0,1.0,58.0,1.0,0.0,0.0,1.0,103.02,59.5144412481139,3.420649106648636,359.7091580824157,High,True
E-765,7-Chloropteridine,InChI=1S/C6H3ClN4/c7-5-2-9-6-4(11-5)1-8-3-10-6/h1-3H,YAVYBQFUSWPIQK-UHFFFAOYSA-N,c1c(Cl)nc2cncnc2n1,-0.87,0.12735,2,G3,166.571,1.0731999999999997,40.138000000000005,11.0,4.0,0.0,5.0,0.0,54.0,2.0,0.0,0.0,2.0,51.56,67.2949258018999,2.8289012156206965,388.9939963432252,High,True
E-789,2-Methylthiopteridine,"InChI=1S/C7H6N4S/c1-12-7-5-6(10-4-11-7)9-3-2-8-5/h2-4H,1H3",XKENOTHGZDIXRS-UHFFFAOYSA-N,c1cnc2c(SC)ncnc2n1,-1.76,0.3025000000000001,2,G3,178.22,1.1416999999999995,46.909000000000006,12.0,5.0,0.0,5.0,1.0,60.0,2.0,0.0,0.0,2.0,51.56,73.47971171478007,2.790967029739264,398.0334383297276,High,True
E-791,Salicylaldehyde,"InChI=1S/C7H6O2/c8-5-6-3-1-2-4-7(6)9/h1-5,9H",SMQUZDBALVYZAC-UHFFFAOYSA-N,O=Cc(c(O)ccc1)c1,-0.86,0.26830069215,2,G3,122.12299999999996,1.2047,33.4943,9.0,2.0,1.0,2.0,1.0,46.0,1.0,0.0,0.0,1.0,37.3,52.75210108613335,3.147979130039752,217.91106510209755,High,True
E-793,Salicylamide,"InChI=1S/C7H7NO2/c8-7(10)5-3-1-2-4-6(5)9/h1-4,9H,(H2,8,10)",SKZKKFZAGNVIMN-UHFFFAOYSA-N,O=C(N)c(c(O)ccc1)c1,-1.76,0.0608643608909062,5,G5,137.13799999999998,0.4911,36.62470000000002,10.0,2.0,2.0,3.0,1.0,52.0,1.0,0.0,0.0,1.0,63.32000000000001,58.09199178314606,3.1529414466808685,257.53794892648057,High,True
E-809,m-Aminoacetophenone,"InChI=1S/C8H9NO/c1-6(10)7-3-2-4-8(9)5-7/h2-5H,9H2,1H3",CKQHAYFOPRIUOM-UHFFFAOYSA-N,c1ccc(N)cc1C(=O)C,-1.28,0.1915716779,2,G3,135.166,1.4714,40.85890000000001,10.0,2.0,1.0,2.0,1.0,52.0,1.0,0.0,0.0,1.0,43.09,59.66270014534666,3.0698992657592745,255.1894333808838,High,True
E-819,2-Chloroallyl_Diethyldithiocarbamate,"InChI=1S/C8H14ClNS2/c1-4-10(5-2)8(11)12-6-7(3)9/h3-6H2,1-2H3",XJCLWVXTCRQIDI-UHFFFAOYSA-N,CCN(CC)C(=S)SCC(Cl)=C,-3.39,0.0201,2,G3,223.794,3.0988000000000016,62.97000000000003,12.0,2.0,0.0,4.0,4.0,70.0,0.0,0.0,0.0,0.0,3.24,89.14923296607671,3.7662844846674624,166.44079551951012,High,True
E-843,l-Camphoronic_Acid,"InChI=1S/C9H14O6/c1-8(2,6(12)13)9(3,7(14)15)4-5(10)11/h4H2,1-3H3,(H,10,11)(H,12,13)(H,14,15)",MJCJFUJXVGIUOD-UHFFFAOYSA-N,OC(=O)CC(C)(C(=O)O)C(C)(C)C(=O)O,-0.29,0.0895,2,G3,218.205,0.6628,49.41240000000002,15.0,3.0,3.0,6.0,5.0,86.0,0.0,0.0,0.0,0.0,111.9,86.52605549972175,5.382759304174601,305.7244301608063,High,True
E-848,Chlordene,"InChI=1S/C10H6Cl6/c11-6-7(12)9(14)5-3-1-2-4(5)8(6,13)10(9,15)16/h1-2,4-5H,3H2",XCJXQCUJXDUNDN-UHFFFAOYSA-N,ClC1=C(Cl)C(Cl)(C2(Cl)Cl)C3CC=CC3C12Cl,-5.64,0.125,2,G3,338.876,5.024200000000001,71.07400000000001,16.0,0.0,0.0,6.0,0.0,88.0,0.0,1.0,3.0,3.0,0.0,123.44662789373284,2.322732831937334,438.5902084254824,Low,False
E-866,Dyphylline,"InChI=1S/C10H14N4O4/c1-12-8-7(9(17)13(2)10(12)18)14(5-11-8)3-6(16)4-15/h5-6,15-16H,3-4H2,1-2H3",KSCFJBIXMNOVSH-UHFFFAOYSA-N,O=C(N(C(=O)C(N(C=N1)CC(O)CO)=C12)C)N2C,-0.17,0.1436,2,G3,254.246,-2.213099999999999,63.30760000000002,18.0,8.0,2.0,8.0,3.0,98.0,2.0,0.0,0.0,2.0,102.28,101.34730875133458,2.7364643675188978,696.1911960747241,High,True
E-872,d-Camphoric_Acid,"InChI=1S/C10H16O4/c1-9(2)6(7(11)12)4-5-10(9,3)8(13)14/h6H,4-5H2,1-3H3,(H,11,12)(H,13,14)",LSPHULWDVZXLIL-UHFFFAOYSA-N,O=C(O)C(C(C(C(=O)O)C1)(C)C)(C1)C,-1.42,0.17505,2,G3,200.23399999999995,1.5980999999999996,49.88360000000003,14.0,2.0,2.0,4.0,2.0,80.0,0.0,1.0,1.0,1.0,74.6,82.92941060834934,3.0816750060746867,281.846585677332,High,True
E-888,Formetanate,"InChI=1S/C11H15N3O2/c1-12-11(15)16-10-6-4-5-9(7-10)13-8-14(2)3/h4-8H,1-3H3,(H,12,15)",RMFNNCGOSPBBAD-UHFFFAOYSA-N,CNC(=O)Oc1cccc(N=CN(C)C)c1,-2.34,0.3949999999999999,2,G3,221.26,1.6262,63.36470000000004,16.0,3.0,1.0,5.0,3.0,86.0,1.0,0.0,0.0,1.0,53.93,94.7361993607022,2.745753924524217,388.5709943614489,High,True
E-892,Fensulfothion,"InChI=1S/C11H17O4PS2/c1-4-13-16(17,14-5-2)15-10-6-8-11(9-7-10)18(3)12/h6-9H,4-5H2,1-3H3",XDNBJTQLKCIJBV-UHFFFAOYSA-N,CCOP(=S)(OCC)Oc1ccc(cc1)S(C)=O,-2.3,0.0559999999999998,2,G3,308.36100000000005,3.1003000000000016,76.93940000000003,18.0,5.0,0.0,7.0,7.0,102.0,1.0,0.0,0.0,1.0,44.760000000000005,115.35093168678956,2.809298823967879,436.8613640932748,High,True
E-923,Methyl_Laurate,"InChI=1S/C13H26O2/c1-3-4-5-6-7-8-9-10-11-12-13(14)15-2/h3-12H2,1-2H3",UQDUPQYQJKYHQI-UHFFFAOYSA-N,O=C(OC)CCCCCCCCCCC,-4.69,0.1243421450000004,2,G3,214.34899999999996,4.080300000000004,63.860000000000056,15.0,2.0,0.0,2.0,10.0,90.0,0.0,0.0,0.0,0.0,26.3,94.39362373013952,2.954539891476961,143.47137920080513,Low,False
E-984,Cinchonidine,"InChI=1S/C19H22N2O/c1-2-13-12-21-10-8-14(13)11-18(21)19(22)16-7-9-20-17-6-4-3-5-15(16)17/h2-7,9,13-14,18-19,22H,1,8,10-12H2",KMPWYEUPVWOPIM-UHFFFAOYSA-N,OC(c(c(c(nc1)ccc2)c2)c1)C(N(CCC3C4C=C)C4)C3,-3.07,0.3646846005478326,3,G5,294.39800000000014,3.164600000000002,88.47480000000004,22.0,3.0,1.0,3.0,3.0,114.0,2.0,3.0,3.0,5.0,36.36000000000001,130.83493885930145,1.6692310274474262,693.399591111803,High,True
E-991,Androsterone,"InChI=1S/C19H30O2/c1-18-9-7-13(20)11-12(18)3-4-14-15-5-6-17(21)19(15,2)10-8-16(14)18/h12-16,20H,3-11H2,1-2H3",QGXBDMJGAMFCBF-UHFFFAOYSA-N,C1C(O)CC2CCC3C4CCC(=O)C4(C)CCC3C2(C)C1,-4.4,0.1200000000000001,2,G3,290.447,3.959100000000003,82.74080000000006,21.0,2.0,1.0,2.0,0.0,118.0,0.0,4.0,4.0,4.0,37.3,128.24064032509136,1.6375393766570925,458.4827066363416,Medium,False
E-1000,Demeclocycline,"InChI=1S/C21H21ClN2O8/c1-24(2)14-7-5-6-10(16(27)12-9(25)4-3-8(22)11(12)15(6)26)18(29)21(7,32)19(30)13(17(14)28)20(23)31/h3-4,6-7,14-15,25-26,28-29,32H,5H2,1-2H3,(H2,23,31)",FMTDIUIBLCQGJB-UHFFFAOYSA-N,c1cc(O)c2C(=O)C3=C(O)C4(O)C(=O)C(C(=O)N)=C(O)C(N(C)C)C4CC3C(O)c2c1Cl,-2.52,0.0149999999999999,2,G3,464.8580000000002,0.2649000000000002,109.93990000000002,32.0,9.0,6.0,11.0,2.0,170.0,1.0,0.0,3.0,4.0,181.62,186.36756096569903,2.022176210703223,1156.698917038136,High,True
E-1007,Noscapine,"InChI=1S/C22H23NO7/c1-23-8-7-11-9-14-20(29-10-28-14)21(27-4)15(11)17(23)18-12-5-6-13(25-2)19(26-3)16(12)22(24)30-18/h5-6,9,17-18H,7-8,10H2,1-4H3",AKNNEGZIBPJZJG-UHFFFAOYSA-N,COc2ccc1C(OC(=O)c1c2OC)C4N(C)CCc5cc3OCOc3c(OC)c45,-3.14,0.41645,2,G3,413.4260000000003,2.881800000000001,105.89450000000004,30.0,8.0,0.0,8.0,4.0,158.0,2.0,0.0,3.0,5.0,75.69000000000001,173.72305215622788,1.685229023858012,1034.8766093427323,High,True
E-1026,ethylbenzene,"InChI=1S/C8H10/c1-2-8-6-4-3-5-7-8/h3-7H,2H2,1H3",YNQLUTRBYVCPMQ-UHFFFAOYSA-N,c1ccccc1CC,-2.77,0.0301260579600668,3,G5,106.168,2.249000000000001,35.82,8.0,0.0,0.0,0.0,1.0,42.0,1.0,0.0,0.0,1.0,0.0,50.16128734829018,2.8320858350070903,141.38429890473827,High,True
E-1036,naphthacene,InChI=1S/C18H12/c1-2-6-14-10-18-12-16-8-4-3-7-15(16)11-17(18)9-13(14)5-1/h1-12H,IFLREYGFSNHWGE-UHFFFAOYSA-N,c(c(cc(c1ccc2)c2)cc(c3ccc4)c4)(c1)c3,-8.6,0.2224935704439312,3,G5,228.294,5.146200000000003,78.96000000000004,18.0,0.0,0.0,0.0,0.0,84.0,4.0,0.0,0.0,4.0,0.0,105.47639671470262,2.1970695771462627,728.2526221384026,Low,False
E-1042,tetrachloromethane,"InChI=1S/CCl4/c2-1(3,4)5",VZGDMQKNWNREIO-UHFFFAOYSA-N,ClC(Cl)(Cl)Cl,-2.31,0.0422162878591804,4,G5,153.823,2.5529,26.143,5.0,0.0,0.0,4.0,0.0,32.0,0.0,0.0,0.0,0.0,0.0,49.952315935356246,3.0237157840738176,19.11941547876375,High,True
E-1060,pentachlorobenzene,InChI=1S/C6HCl5/c7-2-1-3(8)5(10)6(11)4(2)9/h1H,CEOCDNVZRAIOQZ-UHFFFAOYSA-N,c1c(Cl)c(Cl)c(Cl)c(Cl)c1Cl,-5.65,0.2258230428159768,3,G5,250.339,4.9536,51.492,11.0,0.0,0.0,5.0,0.0,60.0,1.0,0.0,0.0,1.0,0.0,88.94773425390531,3.455546483817784,267.2643837476986,Low,False
E-1062,4-chlorobiphenyl,InChI=1S/C12H9Cl/c13-12-8-6-11(7-9-12)10-4-2-1-3-5-10/h1-9H,FPWNLURCHDRMHC-UHFFFAOYSA-N,c1ccccc1c2ccc(Cl)cc2,-5.2,0.0300738350656438,3,G5,188.657,4.007000000000002,56.88800000000003,13.0,0.0,0.0,1.0,1.0,64.0,2.0,0.0,0.0,2.0,0.0,82.79176355244266,2.4238559727704247,375.62904776215686,Low,False
E-1064,"2,2',5-PCB",InChI=1S/C12H7Cl3/c13-8-5-6-12(15)10(7-8)9-3-1-2-4-11(9)14/h1-7H,DCMURXAZTZQAFB-UHFFFAOYSA-N,c1cccc(Cl)c1c2c(Cl)ccc(Cl)c2,-6.02,0.1055999999999999,2,G3,257.547,5.313800000000002,66.90800000000002,15.0,0.0,0.0,3.0,1.0,76.0,2.0,0.0,0.0,2.0,0.0,103.398296006206,2.635165317750569,491.9759470533523,Low,False
E-1067,"2,2',5,6'-PCB",InChI=1S/C12H6Cl4/c13-7-4-5-9(14)8(6-7)12-10(15)2-1-3-11(12)16/h1-6H,SFTUSTXGTCCSHX-UHFFFAOYSA-N,c1c(Cl)ccc(Cl)c1c2c(Cl)cccc2Cl,-6.8,0.0060500000000001,2,G3,291.992,5.967200000000002,71.918,16.0,0.0,0.0,4.0,1.0,82.0,2.0,0.0,0.0,2.0,0.0,113.70156223308769,2.7162794101137435,514.2871240740591,Low,False
E-1077,"2,3-dimethylbutanol","InChI=1S/C6H14O/c1-5(2)6(3)4-7/h5-7H,4H2,1-3H3",SXSWMAUXEHKFGX-UHFFFAOYSA-N,CC(C)C(C)CO,-0.39,0.01005,2,G3,102.177,1.2708,31.087799999999984,7.0,1.0,1.0,1.0,2.0,44.0,0.0,0.0,0.0,0.0,20.23,45.35819535200859,3.1442082073698243,41.444678358882754,High,True