ID,Name,InChI,InChIKey,SMILES,Solubility,SD,Ocurrences,Group,MolWt,MolLogP,MolMR,HeavyAtomCount,NumHAcceptors,NumHDonors,NumHeteroatoms,NumRotatableBonds,NumValenceElectrons,NumAromaticRings,NumSaturatedRings,NumAliphaticRings,RingCount,TPSA,LabuteASA,BalabanJ,BertzCT,bin,is_sol
E-1106,ethyl_propionate,"InChI=1S/C5H10O2/c1-3-5(6)7-4-2/h3-4H2,1-2H3",FKRCODPIKNYEAC-UHFFFAOYSA-N,O=C(OCC)CC,-0.66,0.0352062439499999,2,G3,102.133,0.9595,26.923999999999985,7.0,2.0,0.0,2.0,2.0,42.0,0.0,0.0,0.0,0.0,26.3,43.47408681496663,3.002590528674132,59.10049400592805,High,True
E-1116,anisole,"InChI=1S/C7H8O/c1-8-7-5-3-2-4-6-7/h2-6H,1H3",RDOXTESZEPMUJZ-UHFFFAOYSA-N,c1ccccc1OC,-1.85,0.0924669100849582,3,G5,108.14,1.6952,32.99399999999999,8.0,1.0,0.0,1.0,1.0,42.0,1.0,0.0,0.0,1.0,9.23,48.90989046340046,2.8320858350070903,145.73281445033504,High,True
E-1121,deoxycorticosterone,"InChI=1S/C21H30O3/c1-20-9-7-14(23)11-13(20)3-4-15-16-5-6-18(19(24)12-22)21(16,2)10-8-17(15)20/h11,15-18,22H,3-10,12H2,1-2H3",ZESRJSPZRDMNHY-UHFFFAOYSA-N,C1C(=O)C=C2CCC3C4CCC(C(=O)CO)C4(C)CCC3C2(C)C1,-3.75,0.1499999999999999,2,G3,330.46800000000013,3.695900000000002,92.29280000000006,24.0,3.0,1.0,3.0,2.0,132.0,0.0,3.0,4.0,4.0,54.370000000000005,144.4424436217441,1.6460274623261235,606.2051148204893,Medium,False
E-1123,salicylic_acid,"InChI=1S/C7H6O3/c8-6-4-2-1-3-5(6)7(9)10/h1-4,8H,(H,9,10)",YGSDEFSMJLZEOE-UHFFFAOYSA-N,O=C(O)c(c(O)ccc1)c1,-1.82,0.0369715036778176,4,G5,138.122,1.0903999999999998,35.066100000000006,10.0,2.0,2.0,3.0,1.0,52.0,1.0,0.0,0.0,1.0,57.53,57.54633483832936,3.1529414466808685,254.78306142431708,High,True
E-1127,p-chlorobenzoic_acid,"InChI=1S/C7H5ClO2/c8-6-3-1-5(2-4-6)7(9)10/h1-4H,(H,9,10)",XRHGYUZYPHTUJZ-UHFFFAOYSA-N,O=C(O)c(ccc(c1)Cl)c1,-3.31,0.0137,2,G3,156.56799999999998,2.0382,38.41130000000001,10.0,1.0,1.0,3.0,1.0,52.0,1.0,0.0,0.0,1.0,37.3,63.05536731301502,3.003400684579817,240.28794892648057,High,True
E-1129,hexylamine,"InChI=1S/C6H15N/c1-2-3-4-5-6-7/h2-7H2,1H3",BMVXCPBXGZKUPN-UHFFFAOYSA-N,CCCCCCN,-1.1,0.4426154252655982,4,G5,101.193,1.5254,33.19639999999998,7.0,1.0,1.0,1.0,4.0,44.0,0.0,0.0,0.0,0.0,26.02,45.9038522968253,2.447472887876344,23.36099039894992,High,True
E-1130,n-octylamine,"InChI=1S/C8H19N/c1-2-3-4-5-6-7-8-9/h2-9H2,1H3",IOQPZZOEVPZRBK-UHFFFAOYSA-N,CCCCCCCCN,-2.75,0.0856187848096471,3,G5,129.247,2.3056,42.430400000000006,9.0,1.0,1.0,1.0,6.0,56.0,0.0,0.0,0.0,0.0,26.02,58.63373652561853,2.595082706793886,37.83229392178728,High,True
E-1171,4-nitrobenzoic_acid,"InChI=1S/C7H5NO4/c9-7(10)5-1-3-6(4-2-5)8(11)12/h1-4H,(H,9,10)",OTLNPYWUJOZPPA-UHFFFAOYSA-N,O=C(O)c(ccc(N(=O)=O)c1)c1,-2.8,0.120996846636078,5,G5,167.12,1.293,40.05570000000001,12.0,3.0,1.0,5.0,2.0,62.0,1.0,0.0,0.0,1.0,80.44,67.40507680863315,3.0061498337295456,283.68319020476093,High,True
E-1183,fenitrothion,"InChI=1S/C9H12NO5PS/c1-7-6-8(4-5-9(7)10(11)12)15-16(17,13-2)14-3/h4-6H,1-3H3",ZNOLGFHPUIJIMJ-UHFFFAOYSA-N,COP(=S)(OC)Oc1ccc(N(=O)=O)c(C)c1,-4.04,0.1794359124218633,3,G5,277.238,2.7993200000000007,66.76440000000001,17.0,6.0,0.0,8.0,5.0,94.0,1.0,0.0,0.0,1.0,70.83000000000001,103.8997689769202,2.9896494871249084,470.4540594465827,Medium,False
E-1187,4-chloroacetanilide,"InChI=1S/C8H8ClNO/c1-6(11)10-8-4-2-7(9)3-5-8/h2-5H,1H3,(H,10,11)",GGUOCFNAWIODMF-UHFFFAOYSA-N,O=C(Nc(ccc(c1)Cl)c1)C,-2.84,0.04,2,G3,169.61099999999996,2.2984,45.75570000000002,11.0,1.0,1.0,3.0,1.0,58.0,1.0,0.0,0.0,1.0,29.1,70.17593785882366,2.736298072105655,255.2994975838911,High,True
E-1188,4-nitroacetanilide,"InChI=1S/C8H8N2O3/c1-6(11)9-7-2-4-8(5-3-7)10(12)13/h2-5H,1H3,(H,9,11)",NQRLPDFELNCFHW-UHFFFAOYSA-N,O=C(Nc(ccc(c1)N(=O)=O)c1)C,-2.69,0.4957764370717465,3,G5,180.163,1.5532,47.400100000000016,13.0,3.0,1.0,5.0,2.0,68.0,1.0,0.0,0.0,1.0,72.24000000000001,74.52564735444179,2.809454194164694,331.74730523753374,High,True
E-1194,diallate,"InChI=1S/C10H17Cl2NOS/c1-7(2)13(8(3)4)10(14)15-6-9(12)5-11/h5,7-8H,6H2,1-4H3",SPANOECCGNXGNR-UHFFFAOYSA-N,CC(C)N(C(C)C)C(=O)SCC(Cl)=CCl,-4.08,0.1021502161851199,3,G5,270.225,4.277400000000004,69.75400000000003,15.0,2.0,0.0,5.0,4.0,88.0,0.0,0.0,0.0,0.0,20.31,105.98512527459047,4.27920995877855,233.57688747399035,Medium,False
E-1202,tetrachloroguaiacol,"InChI=1S/C7H4Cl4O2/c1-13-7-5(11)3(9)2(8)4(10)6(7)12/h12H,1H3",YZZVKLJKDFFSFL-UHFFFAOYSA-N,Clc1c(Cl)c(Cl)c(Cl)c(O)c1OC,-4.02,0.3874500000000003,2,G3,261.919,4.0144,54.69880000000001,13.0,2.0,1.0,6.0,1.0,72.0,1.0,0.0,0.0,1.0,29.46,94.91718912312317,3.563757676047912,321.83115827664017,Medium,False
E-1205,L-Asparagine,"InChI=1S/C4H8N2O3/c5-2(4(8)9)1-3(6)7/h2H,1,5H2,(H2,6,7)(H,8,9)",DCXYFEDJOCDNAF-UHFFFAOYSA-N,O=C(O)C(N)CC(=O)N,-0.74,0.0808579109346308,4,G5,132.119,-1.7262999999999993,29.422600000000003,9.0,3.0,3.0,5.0,3.0,52.0,0.0,0.0,0.0,0.0,106.40999999999998,51.631136717328346,3.632432151939845,133.77443751081734,High,True
E-1237,l-Menthone,"InChI=1S/C10H18O/c1-7(2)9-5-4-8(3)6-10(9)11/h7-9H,4-6H2,1-3H3",NFLGAXVYCFJBMK-UHFFFAOYSA-N,O=C(C(CCC1C)C(C)C)C1,-2.49,0.0696774095000001,2,G3,154.253,2.6477000000000013,46.35000000000002,11.0,1.0,0.0,1.0,1.0,64.0,0.0,1.0,1.0,1.0,17.07,69.17942100391355,2.5076939164331398,148.9517669080599,High,True
E-1263,Hydrocinchonine,"InChI=1S/C19H24N2O/c1-2-13-12-21-10-8-14(13)11-18(21)19(22)16-7-9-20-17-6-4-3-5-15(16)17/h3-7,9,13-14,18-19,22H,2,8,10-12H2,1H3",WFJNHVWTKZUUTR-UHFFFAOYSA-N,c12ccccc1nccc2C(O)C3N(C4)CCC(C4CC)C3,-2.63,0.02,2,G3,296.4140000000001,3.388600000000002,88.56880000000004,22.0,3.0,1.0,3.0,3.0,116.0,2.0,3.0,3.0,5.0,36.36000000000001,131.52454189148568,1.6561006728803909,666.0376996839494,High,True
E-1267,Ethisterone,"InChI=1S/C21H28O2/c1-4-21(23)12-9-18-16-6-5-14-13-15(22)7-10-19(14,2)17(16)8-11-20(18,21)3/h1,13,16-18,23H,5-12H2,2-3H3",CHNXZKVNWQUJIB-UHFFFAOYSA-N,C1C(=O)C=C2CCC3C4CCC(O)(C#C)C4(C)CCC3C2(C)C1,-5.66,0.0299999999999998,2,G3,312.4530000000001,3.8826000000000023,90.49280000000005,23.0,2.0,1.0,2.0,0.0,124.0,0.0,3.0,4.0,4.0,37.3,139.2801469135596,1.7024099249747302,626.2430525943431,Low,False
E-1268,Ethyl_Biscoumacetate,"InChI=1S/C22H16O8/c1-2-28-20(25)15(16-18(23)11-7-3-5-9-13(11)29-21(16)26)17-19(24)12-8-4-6-10-14(12)30-22(17)27/h3-10,15,23-24H,2H2,1H3",JCLHQFUTFHUXNN-UHFFFAOYSA-N,c1ccc2OC(=O)C(C(C(=O)OCC)C3=C(O)c4ccccc4OC3=O)=C(O)c2c1,-3.66,0.1149999999999999,2,G3,408.3620000000001,3.005600000000001,106.77360000000004,30.0,8.0,2.0,8.0,4.0,152.0,4.0,0.0,0.0,4.0,127.18000000000002,168.10780752866614,2.0893836866240267,1296.934232507448,High,True
E-1273,benzocaine,"InChI=1S/C9H11NO2/c1-2-12-9(11)7-3-5-8(10)6-4-7/h3-6H,2,10H2,1H3",BLFLLBZGZJTVJG-UHFFFAOYSA-N,O=C(OCC)c(ccc(N)c1)c1,-2.32,0.1794446499620426,5,G5,165.19199999999998,1.4455,46.81090000000002,12.0,3.0,1.0,3.0,2.0,64.0,1.0,0.0,0.0,1.0,52.32,71.14118748925016,2.753742758109602,266.36195376207496,High,True
E-1274,acetylsalicylic_acid,"InChI=1S/C9H8O4/c1-6(10)13-8-5-3-2-4-7(8)9(11)12/h2-5H,1H3,(H,11,12)",BSYNRYMUTXBXSQ-UHFFFAOYSA-N,O=C(Oc(c(ccc1)C(=O)O)c1)C,-1.72,0.0685996885019528,4,G5,180.159,1.3100999999999998,44.71030000000002,13.0,3.0,1.0,4.0,2.0,68.0,1.0,0.0,0.0,1.0,63.60000000000001,74.75705264447721,3.043527354634101,343.22286772671646,High,True
E-1280,phenytoin,"InChI=1S/C15H12N2O2/c18-13-15(17-14(19)16-13,11-7-3-1-4-8-11)12-9-5-2-6-10-12/h1-10H,(H2,16,17,18,19)",CXOFVDLJLONNDW-UHFFFAOYSA-N,O=C1NC(=O)C(N1)(c2ccccc2)c3ccccc3,-3.99,0.0887733203164103,5,G5,252.273,1.7695999999999998,70.33840000000004,19.0,2.0,2.0,4.0,2.0,94.0,2.0,1.0,1.0,3.0,58.2,110.00026108252524,2.2308361050041703,583.608538383389,Medium,False
F-15,"N,N-dichloro-4-methylbenzenesulfonamide","InChI=1S/C7H7Cl2NO2S/c1-6-2-4-7(5-3-6)13(11,12)10(8)9/h2-5H,1H3",ARGDYOIRHYLIMT-UHFFFAOYSA-N,CC1=CC=C(S(=O)(=O)N(Cl)Cl)C=C1,-3.51,0.0219999999999997,2,G3,240.111,2.2933200000000005,51.90980000000002,13.0,2.0,0.0,6.0,2.0,72.0,1.0,0.0,0.0,1.0,37.38,87.1468289153814,3.1701177036068136,385.4584986761165,High,True
F-16,"2-(2,4,6-trichlorophenoxy)acetic acid","InChI=1S/C8H5Cl3O3/c9-4-1-5(10)8(6(11)2-4)14-3-7(12)13/h1-2H,3H2,(H,12,13)",KZDCLQBOHGBWOI-UHFFFAOYSA-N,O=C(O)COC1=C(Cl)C=C(Cl)C=C1Cl,-3.23,0.1083499999999999,2,G3,255.484,3.1102000000000007,54.602800000000016,14.0,2.0,1.0,6.0,3.0,76.0,1.0,0.0,0.0,1.0,46.53,95.14038711068184,2.9081717759880226,341.8442913293867,High,True
F-22,Butyl 4-aminobenzoate,"InChI=1S/C11H15NO2/c1-2-3-8-14-11(13)9-4-6-10(12)7-5-9/h4-7H,2-3,8,12H2,1H3",IUWVALYLNVXWKX-UHFFFAOYSA-N,CCCCOC(=O)C1=CC=C(N)C=C1,-3.06,0.1449338706962593,4,G5,193.246,2.2257,56.04490000000003,14.0,3.0,1.0,3.0,4.0,76.0,1.0,0.0,0.0,1.0,52.32,83.87107171804337,2.4810725342253392,292.66077056340794,High,True
F-67,10H-Phenothiazine,"InChI=1S/C12H9NS/c1-3-7-11-9(5-1)13-10-6-2-4-8-12(10)14-11/h1-8,13H",WJFKNYWRSNBZNX-UHFFFAOYSA-N,C1=CC2=C(C=C1)SC1=C(C=CC=C1)N2,-5.59,0.4753713593526444,3,G5,199.278,3.894800000000002,60.289700000000025,14.0,2.0,1.0,2.0,0.0,68.0,2.0,0.0,1.0,3.0,12.03,87.15563838100506,2.124918321677156,391.7528748573925,Low,False
F-96,"7,9-dihydro-3H-purine-2,6,8-trione","InChI=1S/C5H4N4O3/c10-3-1-2(7-4(11)6-1)8-5(12)9-3/h(H4,6,7,8,9,10,11,12)",LEHOTFFKMJEONL-UHFFFAOYSA-N,O=C1NC(=O)C2=C(N1)NC(=O)N2,-3.62,0.2067758871338726,4,G5,168.112,-1.7672000000000003,40.16079999999999,12.0,3.0,4.0,7.0,0.0,62.0,2.0,0.0,0.0,2.0,114.36999999999998,63.46573831521731,3.183503280694596,582.7396315828354,High,True
F-113,"5,5-diethyl-2-sulfanylidene-1,3-diazinane-4,6-dione","InChI=1S/C8H12N2O2S/c1-3-8(4-2)5(11)9-7(13)10-6(8)12/h3-4H2,1-2H3,(H2,9,10,11,12,13)",QGVNJRROSLYGKF-UHFFFAOYSA-N,CCC1(CC)C(=O)NC(=S)NC1=O,-2.32,0.02,2,G3,200.263,0.3236999999999997,51.89840000000002,13.0,3.0,2.0,5.0,2.0,72.0,0.0,1.0,1.0,1.0,58.2,82.0695634895851,3.0073639750208327,249.31759197106,High,True
F-136,Tributyl phosphate,"InChI=1S/C12H27O4P/c1-4-7-10-14-17(13,15-11-8-5-2)16-12-9-6-3/h4-12H2,1-3H3",STCOOQWBFONSKY-UHFFFAOYSA-N,CCCCOP(=O)(OCCCC)OCCCC,-2.85,0.0641,2,G3,266.3179999999999,4.544600000000004,70.18650000000007,17.0,4.0,0.0,5.0,12.0,104.0,0.0,0.0,0.0,0.0,44.760000000000005,105.64386064918796,3.998982972846674,175.3980969974987,High,True
F-138,2-[[2-[(2-aminoacetyl)amino]acetyl]amino]acetic acid,"InChI=1S/C6H11N3O4/c7-1-4(10)8-2-5(11)9-3-6(12)13/h1-3,7H2,(H,8,10)(H,9,11)(H,12,13)",XKUKSGPZAADMRA-UHFFFAOYSA-N,NCC(=O)NCC(=O)NCC(=O)O,-0.53,0.0101499999999999,2,G3,189.171,-2.737899999999999,42.70960000000001,13.0,4.0,4.0,7.0,5.0,74.0,0.0,0.0,0.0,0.0,121.52,74.2823767163687,3.515971525738806,215.9249038079664,High,True
F-159,2-acetamido-3-methylpentanoic acid,"InChI=1S/C8H15NO3/c1-4-5(2)7(8(11)12)9-6(3)10/h5,7H,4H2,1-3H3,(H,9,10)(H,11,12)",JDTWZSUNGHMMJM-UHFFFAOYSA-N,CCC(C)C(NC(C)=O)C(=O)O,-0.69,0.2469446028464684,4,G5,173.212,0.6218000000000001,44.69550000000001,12.0,2.0,2.0,4.0,4.0,70.0,0.0,0.0,0.0,0.0,66.4,71.9609859644974,4.2241727825466,179.1417863019849,High,True
F-163,2-acetamido-4-methylsulfanylbutanoic acid,"InChI=1S/C7H13NO3S/c1-5(9)8-6(7(10)11)3-4-12-2/h6H,3-4H2,1-2H3,(H,8,9)(H,10,11)",XUYPXLNMDZIRQH-UHFFFAOYSA-N,CSCCC(NC(C)=O)C(=O)O,0.03,0.08775,2,G3,191.252,0.3288,48.23950000000002,12.0,3.0,2.0,5.0,5.0,70.0,0.0,0.0,0.0,0.0,66.4,75.71915387546603,3.86542455318872,172.0344235629434,High,True
F-177,2-ethoxycarbothioylsulfanylbutanedioic acid,"InChI=1S/C7H10O5S2/c1-2-12-7(13)14-4(6(10)11)3-5(8)9/h4H,2-3H2,1H3,(H,8,9)(H,10,11)",CACCMDSRNBZWGQ-UHFFFAOYSA-N,CCOC(=S)SC(CC(=O)O)C(=O)O,-1.19,0.0974499999999999,2,G3,238.286,0.9689,55.49160000000001,14.0,5.0,2.0,7.0,5.0,80.0,0.0,0.0,0.0,0.0,83.83,90.4358509207658,4.156857495504796,240.23465346870267,High,True
F-223,[2-(carbamoyloxymethyl)-2-methylpentyl] carbamate,"InChI=1S/C9H18N2O4/c1-3-4-9(2,5-14-7(10)12)6-15-8(11)13/h3-6H2,1-2H3,(H2,10,12)(H2,11,13)",NPPQSCRMBWNHMW-UHFFFAOYSA-N,CCCC(C)(COC(N)=O)COC(N)=O,-1.74,0.0615735485009594,4,G5,218.253,0.9834000000000004,54.08580000000003,15.0,4.0,2.0,6.0,6.0,88.0,0.0,0.0,0.0,0.0,104.64,88.88870399612915,4.16560476512675,212.1522339557625,High,True
F-252,"6-methyl-3,8-dihydropteridine-4,7-dione","InChI=1S/C7H6N4O2/c1-3-6(12)11-5-4(10-3)7(13)9-2-8-5/h2H,1H3,(H2,8,9,11,12,13)",QAMLXSWNZSGVKP-UHFFFAOYSA-N,CC1=NC2=C(N=CNC2=O)NC1=O,-2.15,0.0250000000000001,2,G3,178.15099999999998,-0.6851800000000001,45.5164,13.0,4.0,2.0,6.0,0.0,66.0,2.0,0.0,0.0,2.0,91.5,71.67964588950235,3.056453769285695,568.4496300374442,High,True
F-270,1-Nitronaphthalene,InChI=1S/C10H7NO2/c12-11(13)10-7-3-5-8-4-1-2-6-9(8)10/h1-7H,RJKGJBPXVHTNJL-UHFFFAOYSA-N,C1=CC=C2C(=C1)C=CC=C2[N+](=O)[O-],-3.71,0.3144502645711859,3,G5,173.17099999999994,2.748000000000001,50.60240000000001,13.0,2.0,0.0,3.0,1.0,64.0,2.0,0.0,0.0,2.0,43.14,74.76604337373196,2.830975658367671,459.9363285884866,Medium,False
F-323,"9-methoxyfuro[3,2-g]chromen-7-one","InChI=1S/C12H8O4/c1-14-12-10-8(4-5-15-10)6-7-2-3-9(13)16-11(7)12/h2-6H,1H3",QXKHYNVANLEOEG-UHFFFAOYSA-N,COC1=C2OC=CC2=CC2=C1OC(=O)C=C2,-3.52,0.0687999999999999,2,G3,216.19199999999995,2.5478000000000005,58.80800000000002,16.0,4.0,0.0,4.0,1.0,80.0,3.0,0.0,0.0,3.0,52.580000000000005,90.03388771500052,2.596039059902241,720.5360957899311,High,True
F-333,"5,5-dipropyl-1,3-diazinane-2,4,6-trione","InChI=1S/C10H16N2O3/c1-3-5-10(6-4-2)7(13)11-9(15)12-8(10)14/h3-6H2,1-2H3,(H2,11,12,13,14,15)",RCOUWKSZRXJXLA-UHFFFAOYSA-N,CCCC1(CCC)C(=O)NC(=O)NC1=O,-2.53,0.0093500000000001,2,G3,212.249,0.9389999999999998,53.93040000000002,15.0,3.0,2.0,5.0,4.0,84.0,0.0,1.0,1.0,1.0,75.27000000000001,88.6021895712172,2.9704426490634592,271.0426262196018,High,True
F-340,"5-butyl-5-ethyl-1,3-diazinane-2,4,6-trione","InChI=1S/C10H16N2O3/c1-3-5-6-10(4-2)7(13)11-9(15)12-8(10)14/h3-6H2,1-2H3,(H2,11,12,13,14,15)",STDBAQMTJLUMFW-UHFFFAOYSA-N,CCCCC1(CC)C(=O)NC(=O)NC1=O,-1.67,0.0205480466765632,3,G5,212.249,0.9389999999999998,53.93040000000002,15.0,3.0,2.0,5.0,4.0,84.0,0.0,1.0,1.0,1.0,75.27000000000001,88.6021895712172,2.891339554138367,279.04262621960174,High,True
F-348,2-Nitronaphthalene,InChI=1S/C10H7NO2/c12-11(13)10-6-5-8-3-1-2-4-9(8)7-10/h1-7H,ZJYJZEAJZXVAMF-UHFFFAOYSA-N,C1=CC=C2C=C(C=CC2=C1)[N+](=O)[O-],-3.82,0.2264000000000001,2,G3,173.17099999999994,2.748000000000001,50.60240000000002,13.0,2.0,0.0,3.0,1.0,64.0,2.0,0.0,0.0,2.0,43.14,74.76604337373196,2.686034663876991,465.18632858848656,Medium,False
F-351,"3-(2-methoxyphenoxy)propane-1,2-diol","InChI=1S/C10H14O4/c1-13-9-4-2-3-5-10(9)14-7-8(12)6-11/h2-5,8,11-12H,6-7H2,1H3",HSRJKNPTNIJEKV-UHFFFAOYSA-N,COC1=C(OCC(O)CO)C=CC=C1,-0.73,0.0659,2,G3,198.218,0.4272000000000001,51.58160000000004,14.0,4.0,2.0,4.0,5.0,78.0,1.0,0.0,0.0,1.0,58.92,82.70672954048919,2.5695217573243,274.5794377388136,High,True
F-391,2-(4-Hydroxybenzoyl)benzoic acid,"InChI=1S/C14H10O4/c15-10-7-5-9(6-8-10)13(16)11-3-1-2-4-12(11)14(17)18/h1-8,15H,(H,17,18)",YGTUPRIZNBMOFV-UHFFFAOYSA-N,O=C(O)C1=C(C(=O)C2=CC=C(O)C=C2)C=CC=C1,-2.73,0.07325,2,G3,242.23,2.321400000000001,64.94060000000003,18.0,3.0,2.0,4.0,3.0,90.0,2.0,0.0,0.0,2.0,74.6,103.1298932588338,2.459795907470056,599.4459859811755,High,True
F-395,(4-acetamidophenyl) ethyl carbonate,"InChI=1S/C11H13NO4/c1-3-15-11(14)16-10-6-4-9(5-7-10)12-8(2)13/h4-7H,3H2,1-2H3,(H,12,13)",AXHGKAOXRWHBIF-UHFFFAOYSA-N,CCOC(=O)OC1=CC=C(NC(C)=O)C=C1,-2.67,0.1599999999999999,2,G3,223.228,2.1803,58.395700000000026,16.0,4.0,1.0,5.0,3.0,86.0,1.0,0.0,0.0,1.0,64.63,93.35611053418936,2.571316213442423,372.0758818636124,High,True
F-406,"4-(2,4-Dichlorophenoxy)-2-methoxy-1-nitrobenzene","InChI=1S/C13H9Cl2NO4/c1-19-13-7-9(3-4-11(13)16(17)18)20-12-5-2-8(14)6-10(12)15/h2-7H,1H3",DXXVCXKMSWHGTF-UHFFFAOYSA-N,COC1=C(C=CC(=C1)OC2=C(C=C(C=C2)Cl)Cl)[N+](=O)[O-],-5.91,0.0549999999999997,2,G3,314.124,4.702500000000002,76.18440000000002,20.0,4.0,0.0,7.0,4.0,104.0,2.0,0.0,0.0,2.0,61.6,124.34003807523447,2.3196573099384548,660.8145701153476,Low,False
F-409,"N-[(4-chlorophenyl)carbamoyl]-2,6-difluorobenzamide","InChI=1S/C14H9ClF2N2O2/c15-8-4-6-9(7-5-8)18-14(21)19-13(20)12-10(16)2-1-3-11(12)17/h1-7H,(H2,18,19,20,21)",QQQYTWIFVNKMRW-UHFFFAOYSA-N,O=C(NC(=O)C1=C(F)C=CC=C1F)NC1=CC=C(Cl)C=C1,-6.54,0.2598613476452396,3,G5,310.687,3.5801000000000016,74.29490000000001,21.0,2.0,2.0,7.0,2.0,108.0,2.0,0.0,0.0,2.0,58.2,123.27548715439198,2.055651412719528,669.6234048767685,Low,False
F-416,Methyl 4-dimethylaminobenzoate,"InChI=1S/C10H13NO2/c1-11(2)9-6-4-8(5-7-9)10(12)13-3/h4-7H,1-3H3",DBQGARDMYOMOOS-UHFFFAOYSA-N,COC(=O)C1=CC=C(N(C)C)C=C1,-3.05,0.125,2,G3,179.219,1.5392,52.10850000000003,13.0,3.0,0.0,3.0,2.0,70.0,1.0,0.0,0.0,1.0,29.54,77.92607257683741,2.870929838146898,290.2979848465724,High,True
F-422,"1,1-dimethyl-3-(4-propan-2-ylphenyl)urea","InChI=1S/C12H18N2O/c1-9(2)10-5-7-11(8-6-10)13-12(15)14(3)4/h5-9H,1-4H3,(H,13,15)",PUIYMUZLKQOUOZ-UHFFFAOYSA-N,CC(C)C1=CC=C(NC(=O)N(C)C)C=C1,-3.5,0.027107563520169,3,G5,206.289,2.903500000000001,63.23670000000004,15.0,1.0,1.0,3.0,2.0,82.0,1.0,0.0,0.0,1.0,32.34,91.09227375973178,2.685768989393265,327.9802853293369,High,True
F-427,"2-diethylamino-N-(2,6-dimethylphenyl)acetamide","InChI=1S/C14H22N2O/c1-5-16(6-2)10-13(17)15-14-11(3)8-7-9-12(14)4/h7-9H,5-6,10H2,1-4H3,(H,15,17)",NNJVILVZKWQKPM-UHFFFAOYSA-N,CCN(CC)CC(=O)NC1=C(C)C=CC=C1C,-1.78,0.0137712260407948,3,G5,234.343,2.5837400000000006,72.33370000000005,17.0,2.0,1.0,3.0,5.0,94.0,1.0,0.0,0.0,1.0,32.34,103.82215798852502,2.680267656047493,363.55864155890856,High,True
F-438,"5-pentan-2-yl-5-prop-2-enyl-1,3-diazinane-2,4,6-trione","InChI=1S/C12H18N2O3/c1-4-6-8(3)12(7-5-2)9(15)13-11(17)14-10(12)16/h5,8H,2,4,6-7H2,1,3H3,(H2,13,14,15,16,17)",KQPKPCNLIDLUMF-UHFFFAOYSA-N,C=CCC1(C(C)CCC)C(=O)NC(=O)NC1=O,-2.36,0.1099999999999998,2,G3,238.287,1.3510999999999995,63.00040000000004,17.0,3.0,2.0,5.0,5.0,94.0,0.0,1.0,1.0,1.0,75.27000000000001,100.64247076782615,3.1136488912232765,342.76224197658604,High,True
F-459,"dipropyl benzene-1,2-dicarboxylate","InChI=1S/C14H18O4/c1-3-9-17-13(15)11-7-5-6-8-12(11)14(16)18-10-4-2/h5-8H,3-4,9-10H2,1-2H3",MQHNKCZKNAJROC-UHFFFAOYSA-N,CCCOC(=O)C1=C(C(=O)OCCC)C=CC=C1,-3.82,0.2274999999999998,2,G3,250.29399999999995,2.8202000000000016,67.58900000000004,18.0,4.0,0.0,4.0,6.0,98.0,1.0,0.0,0.0,1.0,52.60000000000001,106.90107469377114,2.845947495997722,373.0099479118407,Medium,False
F-483,"13-methyl-6,7,8,9,11,12,14,15,16,17-decahydrocyclopenta[a]phenanthrene-3,16,17-triol","InChI=1S/C18H24O3/c1-18-7-6-13-12-5-3-11(19)8-10(12)2-4-14(13)15(18)9-16(20)17(18)21/h3,5,8,13-17,19-21H,2,4,6-7,9H2,1H3",PROQIPRRNZUXQM-UHFFFAOYSA-N,CC12CCC3C4=C(C=C(O)C=C4)CCC3C1CC(O)C2O,-4.0,0.4750000000000001,2,G3,288.387,2.5800000000000005,80.12040000000005,21.0,3.0,3.0,3.0,0.0,114.0,1.0,2.0,3.0,4.0,60.69,125.17591628825662,1.7102706989281615,569.5819082919402,Medium,False
F-486,"5-(1-cyclohexenyl)-1,5-dimethyl-1,3-diazinane-2,4,6-trione","InChI=1S/C12H16N2O3/c1-12(8-6-4-3-5-7-8)9(15)13-11(17)14(2)10(12)16/h6H,3-5,7H2,1-2H3,(H,13,15,17)",UYXAWHWODHRRMR-UHFFFAOYSA-N,CN1C(=O)NC(=O)C(C)(C2=CCCCC2)C1=O,-2.91,0.1290222921630213,4,G5,236.27099999999996,1.2012999999999998,60.96670000000002,17.0,3.0,1.0,5.0,1.0,92.0,0.0,1.0,2.0,2.0,66.48,99.84661110089225,2.4001206158943686,427.4666783814275,High,True
F-519,7-aminonaphthalene-1-sulfonic acid,"InChI=1S/C10H9NO3S/c11-8-5-4-7-2-1-3-10(9(7)6-8)15(12,13)14/h1-6H,11H2,(H,12,13,14)",FYVOTMMSGKWFPK-UHFFFAOYSA-N,NC1=CC2=C(S(=O)(=O)O)C=CC=C2C=C1,-2.54,0.0149999999999999,2,G3,223.253,1.6687000000000003,58.17500000000002,15.0,3.0,2.0,5.0,1.0,78.0,2.0,0.0,0.0,2.0,80.39,87.08159435828551,2.9228020392601675,619.6001475530924,High,True
F-547,N-(9H-Fluoren-2-yl)acetamide,"InChI=1S/C15H13NO/c1-10(17)16-13-6-7-15-12(9-13)8-11-4-2-3-5-14(11)15/h2-7,9H,8H2,1H3,(H,16,17)",CZIHNRWJTSTCEX-UHFFFAOYSA-N,CC(=O)NC1=CC2=C(C=C1)C1=C(C=CC=C1)C2,-4.24,0.1924999999999999,2,G3,223.275,3.216200000000001,68.98770000000003,17.0,1.0,1.0,2.0,1.0,84.0,2.0,0.0,1.0,3.0,29.1,100.28887679887342,2.0368668949211246,601.6208569648081,Medium,False
F-601,2-(carboxymethylsulfanyl)-2-phenylacetic acid,"InChI=1S/C10H10O4S/c11-8(12)6-15-9(10(13)14)7-4-2-1-3-5-7/h1-5,9H,6H2,(H,11,12)(H,13,14)",AIUNWFBYULOSRS-UHFFFAOYSA-N,O=C(O)CSC(C(=O)O)C1=CC=CC=C1,-1.23,0.03705,2,G3,226.253,1.6301,56.912600000000026,15.0,3.0,2.0,5.0,5.0,80.0,1.0,0.0,0.0,1.0,74.6,90.9257933069282,2.7504014279867066,349.69983791665175,High,True