ID,Name,InChI,InChIKey,SMILES,Solubility,SD,Ocurrences,Group,MolWt,MolLogP,MolMR,HeavyAtomCount,NumHAcceptors,NumHDonors,NumHeteroatoms,NumRotatableBonds,NumValenceElectrons,NumAromaticRings,NumSaturatedRings,NumAliphaticRings,RingCount,TPSA,LabuteASA,BalabanJ,BertzCT,bin,is_sol
B-2893,isazofos,"InChI=1S/C9H17ClN3O3PS/c1-5-14-17(18,15-6-2)16-9-11-8(10)13(12-9)7(3)4/h7H,5-6H2,1-4H3",XRHGWAGWAHHFLF-UHFFFAOYSA-N,CCO[P](=S)(OCC)Oc1nn(C(C)C)c(Cl)n1,-3.6577,0.1688500000000001,2,G3,313.747,3.1887000000000016,73.58200000000002,18.0,7.0,0.0,9.0,7.0,104.0,1.0,0.0,0.0,1.0,58.4,116.83670937679588,2.8750624593190346,430.6923928886501,High,True
B-2894,bifenox,"InChI=1S/C14H9Cl2NO5/c1-21-14(18)10-7-9(3-4-12(10)17(19)20)22-13-5-2-8(15)6-11(13)16/h2-7H,1H3",SUSRORUBZHMPCO-UHFFFAOYSA-N,COC(=O)c1cc(Oc2ccc(Cl)cc2Cl)ccc1[N+]([O-])=O,-5.9343,0.0278499999999999,2,G3,342.1340000000001,4.480500000000003,80.97190000000005,22.0,5.0,0.0,8.0,4.0,114.0,2.0,0.0,0.0,2.0,78.66999999999999,134.86650228967486,2.399020158429125,748.008210141674,Low,False
B-2899,oxyfluorfen,"InChI=1S/C15H11ClF3NO4/c1-2-23-14-8-10(4-5-12(14)20(21)22)24-13-6-3-9(7-11(13)16)15(17,18)19/h3-8H,2H2,1H3",OQMBBFQZGJFLBU-UHFFFAOYSA-N,CCOc1cc(Oc2ccc(cc2Cl)C(F)(F)F)ccc1[N+]([O-])=O,-6.4939,0.0320499999999999,2,G3,361.703,5.458000000000003,80.79340000000002,24.0,4.0,0.0,9.0,5.0,128.0,2.0,0.0,0.0,2.0,61.6,139.26326228592475,2.310390332223276,764.8697632211209,Low,False
B-2908,ipt (isoprothiolane),"InChI=1S/C12H18O4S2/c1-7(2)15-10(13)9(11(14)16-8(3)4)12-17-5-6-18-12/h7-8H,5-6H2,1-4H3",UFHLMYOGRXOCSL-UHFFFAOYSA-N,CC(C)OC(=O)C(C(=O)OC(C)C)=C1SCCS1,-3.7306,0.0246999999999999,2,G3,290.406,2.581200000000001,74.39800000000004,18.0,6.0,0.0,6.0,4.0,102.0,0.0,1.0,1.0,1.0,52.60000000000001,115.8545348103105,2.918164740548121,329.0889112034554,Medium,False
B-2926,cimetidine,"InChI=1S/C10H16N6S/c1-8-9(16-7-15-8)5-17-4-3-13-10(12-2)14-6-11/h7H,3-5H2,1-2H3,(H,15,16)(H2,12,13,14)",AQIXAKUUQRKLND-UHFFFAOYSA-N,CN=C(NCCSCc1nc[nH]c1C)NC#N,-1.4298,0.1593065284286868,4,G5,252.347,0.5974,69.59710000000001,17.0,4.0,3.0,7.0,5.0,92.0,1.0,0.0,0.0,1.0,88.88999999999999,104.9255428821442,2.1309410302229006,405.1737761568005,High,True
B-2932,"2,2',3,4',5,5'-hexachlorobiphenyl",InChI=1S/C12H4Cl6/c13-5-1-7(12(18)11(17)2-5)6-3-9(15)10(16)4-8(6)14/h1-4H,BQHCQAQLTCQFJZ-UHFFFAOYSA-N,Clc1cc(Cl)c(Cl)c(c1)c2cc(Cl)c(Cl)cc2Cl,-8.5801,0.0099499999999999,2,G3,360.88200000000006,7.274000000000001,81.938,18.0,0.0,0.0,6.0,1.0,94.0,2.0,0.0,0.0,2.0,0.0,134.30809468685104,2.728863015719204,620.4500798683472,Low,False
B-2940,"2,2',3,4,5-pentachlorobiphenyl",InChI=1S/C12H5Cl5/c13-8-3-1-2-6(10(8)15)7-4-5-9(14)12(17)11(7)16/h1-5H,AUGNBQPSMWGAJE-UHFFFAOYSA-N,Clc1cccc(c1Cl)c2ccc(Cl)c(Cl)c2Cl,-7.0502,0.08495,2,G3,326.437,6.620600000000001,76.92800000000003,17.0,0.0,0.0,5.0,1.0,88.0,2.0,0.0,0.0,2.0,0.0,124.00482845996932,2.6949525627751907,577.348938365776,Low,False
B-2948,"2,2',3,3',4,4',6-heptachlorobiphenyl",InChI=1S/C12H3Cl7/c13-5-2-1-4(9(16)10(5)17)8-6(14)3-7(15)11(18)12(8)19/h1-3H,TZMHVHLTPWKZCI-UHFFFAOYSA-N,Clc1ccc(c(Cl)c1Cl)c2c(Cl)cc(Cl)c(Cl)c2Cl,-8.2605,0.2928330013278332,3,G5,395.3270000000001,7.9274,86.94800000000001,19.0,0.0,0.0,7.0,1.0,100.0,2.0,0.0,0.0,2.0,0.0,144.61136091373268,2.802853603501204,663.8579666719705,Low,False
B-2949,"2,3',4,4',5,5'-hexachlorobiphenyl",InChI=1S/C12H4Cl6/c13-7-4-9(15)8(14)3-6(7)5-1-10(16)12(18)11(17)2-5/h1-4H,AZXHAWRMEPZSSV-UHFFFAOYSA-N,Clc1cc(Cl)c(cc1Cl)c2cc(Cl)c(Cl)c(Cl)c2,-8.21,0.1549999999999993,2,G3,360.88200000000006,7.274000000000001,81.938,18.0,0.0,0.0,6.0,1.0,94.0,2.0,0.0,0.0,2.0,0.0,134.308094686851,2.6579358957230155,597.2000798683472,Low,False
B-2957,"2,2',3,3',5,6-hexachlorobiphenyl",InChI=1S/C12H4Cl6/c13-6-3-1-2-5(10(6)16)9-11(17)7(14)4-8(15)12(9)18/h1-4H,RVWLHPJFOKUPNM-UHFFFAOYSA-N,Clc1cccc(c1Cl)c2c(Cl)c(Cl)cc(Cl)c2Cl,-8.6036,0.3517999999999999,2,G3,360.88200000000006,7.274000000000001,81.938,18.0,0.0,0.0,6.0,1.0,94.0,2.0,0.0,0.0,2.0,0.0,134.308094686851,2.827516798418819,594.2000798683472,Low,False
B-2988,triadimenol,"InChI=1S/C14H18ClN3O2/c1-14(2,3)12(19)13(18-9-16-8-17-18)20-11-6-4-10(15)5-7-11/h4-9,12-13,19H,1-3H3",BAZVSMNPJJMILC-UHFFFAOYSA-N,CC(C)(C)C(O)C(Oc1ccc(Cl)cc1)n2cncn2,-3.3918,0.2891000000000001,2,G3,295.77,2.916100000000001,76.60080000000004,20.0,5.0,1.0,6.0,4.0,108.0,2.0,0.0,0.0,2.0,60.17,122.71607665843256,2.255633017608437,534.5467010238787,High,True
B-2992,dimethipin,"InChI=1S/C6H10O4S2/c1-5-6(2)12(9,10)4-3-11(5,7)8/h3-4H2,1-2H3",PHVNLLCAQHGNKU-UHFFFAOYSA-N,CC1=C(C)[S](=O)(=O)CC[S]1(=O)=O,-1.66,0.095,2,G3,210.27599999999995,0.0809999999999999,45.94760000000002,12.0,4.0,0.0,6.0,0.0,70.0,0.0,0.0,1.0,1.0,68.28,72.11932417767227,3.49765704262838,382.1685439087073,High,True
B-2993,"2,2',3,4,5-pentachlorobiphenyl",InChI=1S/C12H5Cl5/c13-8-4-2-1-3-6(8)7-5-9(14)11(16)12(17)10(7)15/h1-5H,AIURIRUDHVDRFQ-UHFFFAOYSA-N,Clc1ccccc1c2cc(Cl)c(Cl)c(Cl)c2Cl,-7.5226,0.1562999999999998,2,G3,326.437,6.6206000000000005,76.92800000000001,17.0,0.0,0.0,5.0,1.0,88.0,2.0,0.0,0.0,2.0,0.0,124.00482845996932,2.733697850621109,577.348938365776,Low,False
B-2995,triclopyr,"InChI=1S/C7H4Cl3NO3/c8-3-1-4(9)7(11-6(3)10)14-2-5(12)13/h1H,2H2,(H,12,13)",REEQLXCGVXDJSQ-UHFFFAOYSA-N,OC(=O)COc1nc(Cl)c(Cl)cc1Cl,-2.7656,0.0071999999999998,2,G3,256.472,2.5052000000000003,52.39780000000001,14.0,3.0,1.0,7.0,3.0,76.0,1.0,0.0,0.0,1.0,59.42,94.36003509162836,2.866629468975876,369.4428068749835,High,True
B-2996,buthidazole,"InChI=1S/C10H16N4O2S/c1-10(2,3)7-11-12-8(17-7)14-6(15)5-13(4)9(14)16/h6,15H,5H2,1-4H3",SWMGXKSQWDSBKV-UHFFFAOYSA-N,CN1CC(O)N(C1=O)c2sc(nn2)C(C)(C)C,-1.8773,0.1386499999999999,2,G3,256.331,1.0258,65.12080000000003,17.0,5.0,1.0,7.0,1.0,94.0,1.0,1.0,1.0,2.0,69.56,103.86864487449634,2.293712697729707,439.7594517783737,High,True
B-3009,flurprimidol,"InChI=1S/C15H15F3N2O2/c1-10(2)14(21,12-7-19-9-20-8-12)11-3-5-13(6-4-11)22-15(16,17)18/h3-10,21H,1-2H3",VEVZCONIUDBCDC-UHFFFAOYSA-N,CC(C)C(O)(c1ccc(OC(F)(F)F)cc1)c2cncnc2,-3.4377,0.02885,2,G3,312.29099999999994,3.267100000000002,72.99380000000002,22.0,4.0,1.0,7.0,4.0,118.0,2.0,0.0,0.0,2.0,55.24,125.15688904991865,2.3833827606219,614.9347281236406,High,True
B-3017,tolclofos-methyl,"InChI=1S/C9H11Cl2O3PS/c1-6-4-7(10)9(8(11)5-6)14-15(16,12-2)13-3/h4-5H,1-3H3",OBZIQQJJIKNWNO-UHFFFAOYSA-N,CO[P](=S)(OC)Oc1c(Cl)cc(C)cc1Cl,-5.4374,0.2198000000000002,2,G3,301.131,4.197920000000002,70.13000000000002,16.0,4.0,0.0,7.0,4.0,90.0,1.0,0.0,0.0,1.0,27.69,109.85332570818376,3.108550682382984,407.7574288999408,Low,False
B-3020,"2,3,4,7,8-pentachlorodibenzofuran",InChI=1S/C12H3Cl5O/c13-6-1-4-5-2-8(15)10(16)11(17)12(5)18-9(4)3-7(6)14/h1-3H,OGBQILNBLMPPDP-UHFFFAOYSA-N,Clc1cc2oc3c(Cl)c(Cl)c(Cl)cc3c2cc1Cl,-9.1609,0.0195499999999997,2,G3,340.4200000000001,6.853,78.77000000000001,18.0,1.0,0.0,6.0,0.0,92.0,3.0,0.0,0.0,3.0,13.14,127.10539258145256,2.5601781520814355,790.34839029179,Low,False
B-3043,thiodicarb,"InChI=1S/C10H18N4O4S3/c1-7(19-5)11-17-9(15)13(3)21-14(4)10(16)18-12-8(2)20-6/h1-6H3/b11-7+,12-8+",XDOTVMNBCQVZKG-MKICQXMISA-N,CSC(/C)=N/OC(=O)N(C)SN(C)C(=O)O\N=C(/C)SC,-4.0055,0.1317500000000002,2,G3,354.4790000000001,3.079200000000002,89.32700000000003,21.0,9.0,0.0,11.0,4.0,120.0,0.0,0.0,0.0,0.0,83.8,136.43233912493596,4.332318493400809,392.52587049857226,Medium,False
B-3104,"2,2',3,4,4'-pentachlorobiphenyl",InChI=1S/C12H5Cl5/c13-6-1-2-7(10(15)5-6)8-3-4-9(14)12(17)11(8)16/h1-5H,LACXVZHAJMVESG-UHFFFAOYSA-N,Clc1ccc(c(Cl)c1)c2ccc(Cl)c(Cl)c2Cl,-7.62,0.0899999999999998,2,G3,326.437,6.620600000000001,76.92800000000003,17.0,0.0,0.0,5.0,1.0,88.0,2.0,0.0,0.0,2.0,0.0,124.00482845996932,2.649505991756738,577.3489383657761,Low,False
B-3105,4(1h)-pteridinethione,"InChI=1S/C6H4N4S/c11-6-4-5(9-3-10-6)8-2-1-7-4/h1-3H,(H,8,9,10,11)",GTLUQRDIJWHQGF-UHFFFAOYSA-N,S=C1N=CNc2nccnc12,-2.6471,0.14355,2,G3,164.193,1.0823899999999995,42.517700000000005,11.0,4.0,1.0,5.0,0.0,54.0,2.0,0.0,0.0,2.0,54.46,67.35043982222311,3.0307899009392414,430.28037088475946,High,True
B-3111,flutolanil,"InChI=1S/C17H16F3NO2/c1-11(2)23-13-7-5-6-12(10-13)21-16(22)14-8-3-4-9-15(14)17(18,19)20/h3-11H,1-2H3,(H,21,22)",PTCGDEVVHUXTMP-UHFFFAOYSA-N,CC(C)Oc1cccc(NC(=O)c2ccccc2C(F)(F)F)c1,-4.6947,0.0823499999999999,2,G3,323.314,4.744900000000003,81.60320000000003,23.0,2.0,1.0,6.0,4.0,122.0,2.0,0.0,0.0,2.0,38.33,131.63474361948144,2.2346154896105133,696.2329895909495,Low,False
B-3154,fluvalinate,"InChI=1S/C26H22ClF3N2O3/c1-16(2)24(32-22-12-11-18(14-21(22)27)26(28,29)30)25(33)35-23(15-31)17-7-6-10-20(13-17)34-19-8-4-3-5-9-19/h3-14,16,23-24,32H,1-2H3",INISTDXBRIBGOC-UHFFFAOYSA-N,CC(C)C(Nc1ccc(cc1Cl)C(F)(F)F)C(=O)OC(C#N)c2cccc(Oc3ccccc3)c2,-8.0025,0.1987500000000004,2,G3,502.9200000000002,7.395680000000005,126.1067,35.0,5.0,1.0,9.0,8.0,182.0,3.0,0.0,0.0,3.0,71.35,205.5960553065925,1.7542695134519983,1210.4541526746402,Low,False
B-3163,"benzoic acid, 2-[4,5-dihydro-4-methyl-4-(1-methy","InChI=1S/C16H20N2O3/c1-9(2)16(4)15(20)17-13(18-16)11-7-6-10(3)8-12(11)14(19)21-5/h6-9H,1-5H3,(H,17,18,20)",TYIHVCIQMMTVHE-UHFFFAOYSA-N,COC(=O)c1cc(C)ccc1C2=NC(C)(C(C)C)C(=O)N2,-2.3262,0.1030999999999999,2,G3,288.347,2.07272,80.44120000000004,21.0,4.0,1.0,5.0,3.0,112.0,1.0,0.0,1.0,2.0,67.75999999999999,123.95676720899638,2.53534996818914,634.4093015647203,High,True
B-3168,"2,2'4,5-tetrachlorobiphenyl",InChI=1S/C12H6Cl4/c13-9-4-2-1-3-7(9)8-5-11(15)12(16)6-10(8)14/h1-6H,XBTHILIDLBPRPM-UHFFFAOYSA-N,Clc1ccccc1c2cc(Cl)c(Cl)cc2Cl,-7.2505,0.3402499999999997,2,G3,291.992,5.967200000000001,71.91800000000002,16.0,0.0,0.0,4.0,1.0,82.0,2.0,0.0,0.0,2.0,0.0,113.70156223308766,2.653312716111061,534.537124074059,Low,False
B-3169,"2,3',4',5-tetrachlorobiphenyl",InChI=1S/C12H6Cl4/c13-9-4-2-1-3-8(9)7-5-10(14)12(16)11(15)6-7/h1-6H,QILUYCYPNYWMIL-UHFFFAOYSA-N,Clc1ccccc1c2cc(Cl)c(Cl)c(Cl)c2,-6.9069,0.1715499999999998,2,G3,291.992,5.967200000000001,71.91800000000002,16.0,0.0,0.0,4.0,1.0,82.0,2.0,0.0,0.0,2.0,0.0,113.70156223308766,2.6194980887380903,511.2871240740591,Low,False
B-3185,fenoxycarb,"InChI=1S/C17H19NO4/c1-2-20-17(19)18-12-13-21-14-8-10-16(11-9-14)22-15-6-4-3-5-7-15/h3-11H,2,12-13H2,1H3,(H,18,19)",HJUFTIJOISQSKQ-UHFFFAOYSA-N,CCOC(=O)NCCOc1ccc(Oc2ccccc2)cc1,-4.7009,0.0095499999999999,2,G3,301.34200000000004,3.6038000000000014,83.47770000000004,22.0,4.0,1.0,5.0,7.0,116.0,2.0,0.0,0.0,2.0,56.790000000000006,129.3652278697165,1.7372919970376688,568.9726260550095,Low,False
B-3200,sulfometuron (ph 5-7),"InChI=1S/C15H16N4O5S/c1-9-8-10(2)17-14(16-9)18-15(21)19-25(22,23)12-7-5-4-6-11(12)13(20)24-3/h4-8H,1-3H3,(H2,16,17,18,19,21)",ZDXMLEQEMNLCQG-UHFFFAOYSA-N,COC(=O)c1ccccc1[S](=O)(=O)NC(=O)Nc2nc(C)cc(C)n2,-3.1742,0.0470999999999999,2,G3,364.3830000000001,1.39044,88.62770000000003,25.0,7.0,2.0,10.0,4.0,132.0,2.0,0.0,0.0,2.0,127.35,144.0495935486626,2.239764540396422,907.0190014647744,High,True
B-3204,"2,3,4,4',5-pentachlorobiphenyl",InChI=1S/C12H5Cl5/c13-7-3-1-6(2-4-7)8-5-9(14)11(16)12(17)10(8)15/h1-5H,SXZSFWHOSHAKMN-UHFFFAOYSA-N,Clc1ccc(cc1)c2cc(Cl)c(Cl)c(Cl)c2Cl,-7.3102,0.3898999999999999,2,G3,326.437,6.6206000000000005,76.92800000000001,17.0,0.0,0.0,5.0,1.0,88.0,2.0,0.0,0.0,2.0,0.0,124.00482845996932,2.637737572172888,560.0989383657761,Low,False
B-3250,harmony,"InChI=1S/C12H13N5O6S2/c1-6-13-10(16-12(14-6)23-3)15-11(19)17-25(20,21)7-4-5-24-8(7)9(18)22-2/h4-5H,1-3H3,(H2,13,14,15,16,17,19)",AHTPATJNIAFOLR-UHFFFAOYSA-N,COC(=O)c1sccc1[S](=O)(=O)NC(=O)Nc2nc(C)nc(OC)n2,-2.2379,0.0139499999999999,2,G3,387.39900000000017,0.5471199999999999,86.11470000000003,25.0,10.0,2.0,13.0,5.0,134.0,2.0,0.0,0.0,2.0,149.46999999999997,146.0231500295275,2.185035211397952,910.4696135150818,High,True
B-3256,etofenprox,"InChI=1S/C25H28O3/c1-4-27-22-15-13-21(14-16-22)25(2,3)19-26-18-20-9-8-12-24(17-20)28-23-10-6-5-7-11-23/h5-17H,4,18-19H2,1-3H3",YREQHYQNNWYQCJ-UHFFFAOYSA-N,CCOc1ccc(cc1)C(C)(C)COCc2cccc(Oc3ccccc3)c2,-8.5758,0.0121000000000002,2,G3,376.496,6.372000000000007,113.25100000000003,28.0,3.0,0.0,3.0,9.0,146.0,3.0,0.0,0.0,3.0,27.69,167.44082202092187,1.5545648691555884,854.4761380608963,Low,False
B-3260,imazamethabenz (isomer mix),"InChI=1S/C16H20N2O3/c1-9(2)16(4)15(20)17-13(18-16)12-8-10(3)6-7-11(12)14(19)21-5/h6-9H,1-5H3,(H,17,18,20)",FFCCBBNQPIMUJI-UHFFFAOYSA-N,COC(=O)c1ccc(C)cc1C2=NC(C)(C(C)C)C(=O)N2,-2.4599,0.0740810517083971,3,G5,288.347,2.07272,80.44120000000004,21.0,4.0,1.0,5.0,3.0,112.0,1.0,0.0,1.0,2.0,67.75999999999999,123.95676720899638,2.550990471886427,634.4093015647204,High,True
B-3273,isoxaben,"InChI=1S/C18H24N2O4/c1-6-18(3,7-2)14-11-15(24-20-14)19-17(21)16-12(22-4)9-8-10-13(16)23-5/h8-11H,6-7H2,1-5H3,(H,19,21)",PMHURSZHKKJGBM-UHFFFAOYSA-N,CCC(C)(CC)c1cc(NC(=O)c2c(OC)cccc2OC)on1,-5.3694,0.0752999999999999,2,G3,332.40000000000003,4.0218000000000025,91.93620000000006,24.0,5.0,1.0,6.0,7.0,130.0,2.0,0.0,0.0,2.0,73.59,141.67678464858872,2.271488099530214,682.544365262882,Low,False
B-3278,teflubenzuron,"InChI=1S/C14H6Cl2F4N2O2/c15-5-4-8(12(20)10(16)11(5)19)21-14(24)22-13(23)9-6(17)2-1-3-7(9)18/h1-4H,(H2,21,22,23,24)",CJDWRQLODFKPEL-UHFFFAOYSA-N,Fc1cccc(F)c1C(=O)NC(=O)Nc2cc(Cl)c(F)c(Cl)c2F,-7.3023,0.1647657181424583,4,G5,381.1120000000001,4.511700000000001,79.22090000000001,24.0,2.0,2.0,10.0,2.0,126.0,2.0,0.0,0.0,2.0,58.2,141.9098241871261,2.1885067686289257,825.7595339075734,Low,False
B-3326,"2-pteridinol, 6,7-diethyl-","InChI=1S/C10H12N4O/c1-3-6-7(4-2)13-9-8(12-6)5-11-10(15)14-9/h5H,3-4H2,1-2H3,(H,11,13,14,15)",GSGKUGGVXZDGBA-UHFFFAOYSA-N,CCc1nc2cnc(O)nc2nc1CC,-2.2644,0.0177999999999998,2,G3,204.23299999999995,1.2501999999999998,55.54880000000003,15.0,5.0,1.0,5.0,2.0,78.0,2.0,0.0,0.0,2.0,71.79,87.24566178480066,2.6938365402816773,497.9915248566571,High,True
B-3363,flumetsulam,"InChI=1S/C12H9F2N5O2S/c1-7-5-6-19-11(15-7)16-12(17-19)22(20,21)18-10-8(13)3-2-4-9(10)14/h2-6,18H,1H3",RXCPQSJAVKGONC-UHFFFAOYSA-N,Cc1ccn2nc(nc2n1)[S](=O)(=O)Nc3c(F)cccc3F,-3.8248,0.2012105240999999,2,G3,325.3,1.51172,72.6855,22.0,6.0,1.0,10.0,3.0,114.0,3.0,0.0,0.0,3.0,89.25,123.24070622828984,2.045435299533405,950.5571106956236,Medium,False
B-3404,"valeric acid, 4-(benzamido)-","InChI=1S/C12H15NO3/c1-9(7-8-11(14)15)13-12(16)10-5-3-2-4-6-10/h2-6,9H,7-8H2,1H3,(H,13,16)(H,14,15)",ZGBHFYITZDYZPR-UHFFFAOYSA-N,CC(CCC(O)=O)NC(=O)c1ccccc1,-1.6917,0.02585,2,G3,221.256,1.6697000000000002,60.24000000000003,16.0,2.0,2.0,4.0,5.0,86.0,1.0,0.0,0.0,1.0,66.4,94.2881959417682,2.4259171535978323,361.7864391863981,High,True
B-3455,fluthiacet-methyl,"InChI=1S/C15H15ClFN3O3S2/c1-23-13(21)8-24-12-7-11(10(17)6-9(12)16)18-14-19-4-2-3-5-20(19)15(22)25-14/h6-7H,2-5,8H2,1H3",ZCNQYNHDVRPZIH-UHFFFAOYSA-N,COC(=O)CSc1cc(N=C2SC(=O)N3CCCCN23)c(F)cc1Cl,-5.6768,0.0615999999999998,2,G3,403.88800000000015,2.795100000000001,95.17600000000002,25.0,8.0,0.0,10.0,4.0,134.0,2.0,0.0,1.0,3.0,65.59,155.4291403173356,2.0012436268546563,935.0784048574064,Low,False
B-3496,fludioxonil,"InChI=1S/C12H6F2N2O2/c13-12(14)17-10-3-1-2-8(11(10)18-12)9-6-16-5-7(9)4-15/h1-3,5-6,16H",MUJOIMFVNIBMKC-UHFFFAOYSA-N,FC1(F)Oc2cccc(c2O1)c3c[nH]cc3C#N,-5.1395,0.03525,2,G3,248.188,2.87488,57.14670000000001,18.0,3.0,1.0,6.0,1.0,90.0,2.0,0.0,1.0,3.0,58.04,100.3724517681742,2.174022074141394,658.3372887633639,Low,False
B-3550,"2,3-dimethylbutane","InChI=1S/C6H14/c1-5(2)6(3)4/h5-6H,1-4H3",ZFFMLCVRJBZUDZ-UHFFFAOYSA-N,CC(C)C(C)C,-3.5832,0.0333999999999998,2,G3,86.178,2.2984,29.675999999999984,6.0,0.0,0.0,0.0,1.0,38.0,0.0,0.0,0.0,0.0,0.0,40.563961599812586,2.993497243478473,21.019550008653876,High,True
B-3559,n-heptane,"InChI=1S/C7H16/c1-3-5-7-6-4-2/h3-7H2,1-2H3",IMNFDUFMRHMDMM-UHFFFAOYSA-N,CCCCCCC,-4.4694,0.0302999999999999,2,G3,100.205,2.976700000000002,34.432999999999986,7.0,0.0,0.0,0.0,4.0,44.0,0.0,0.0,0.0,0.0,0.0,46.92890371420919,2.447472887876344,19.219280948873624,Medium,False
B-3563,benzo(a)pyrene,InChI=1S/C20H12/c1-2-7-17-15(4-1)12-16-9-8-13-5-3-6-14-10-11-18(17)20(16)19(13)14/h1-12H,FMMWHPNWAFZXNH-UHFFFAOYSA-N,c1ccc2c(c1)cc3ccc4cccc5ccc2c3c45,-8.1924,0.3602416349556995,3,G5,252.316,5.737200000000003,87.65200000000004,20.0,0.0,0.0,0.0,0.0,92.0,5.0,0.0,0.0,5.0,0.0,116.13708612657338,2.230840176230173,1069.7218869027129,Low,False
B-3564,"dibenz(a,h)anthracene",InChI=1S/C22H14/c1-3-7-19-15(5-1)9-11-17-14-22-18(13-21(17)19)12-10-16-6-2-4-8-20(16)22/h1-14H,LHRCREOYAASXPZ-UHFFFAOYSA-N,c1ccc2c(c1)ccc3cc4c(ccc5ccccc45)cc23,-8.6679,0.3099499999999997,2,G3,278.354,6.299400000000003,96.46600000000004,22.0,0.0,0.0,0.0,0.0,102.0,5.0,0.0,0.0,5.0,0.0,128.15806124643782,2.0194254860819045,1070.7978172121288,Low,False
B-3565,3-methylcholanthrene,"InChI=1S/C21H16/c1-13-6-7-15-12-20-17-5-3-2-4-14(17)8-9-18(20)19-11-10-16(13)21(15)19/h2-9,12H,10-11H2,1H3",PPQNQXQZIWHJRB-UHFFFAOYSA-N,Cc1ccc2cc3c(ccc4ccccc34)c5CCc1c25,-7.9663,0.0231500000000002,2,G3,268.359,5.553220000000004,91.10500000000005,21.0,0.0,0.0,0.0,0.0,100.0,4.0,0.0,1.0,5.0,0.0,123.5653919043632,2.0795209519930205,1038.130433495046,Low,False
B-3566,benz(a)anthracene,InChI=1S/C18H12/c1-2-7-15-12-18-16(11-14(15)6-1)10-9-13-5-3-4-8-17(13)18/h1-12H,DXBHBZVCASKNBY-UHFFFAOYSA-N,c1ccc2cc3c(ccc4ccccc34)cc2c1,-7.3854,0.0126999999999997,2,G3,228.294,5.146200000000003,78.96000000000004,18.0,0.0,0.0,0.0,0.0,84.0,4.0,0.0,0.0,4.0,0.0,105.4763967147026,2.268265813130303,866.2526221384028,Low,False
B-3569,phenanthrene,InChI=1S/C14H10/c1-3-7-13-11(5-1)9-10-12-6-2-4-8-14(12)13/h1-10H,YNPNZTXNASCQKK-UHFFFAOYSA-N,c1ccc2c(c1)ccc3ccccc23,-5.1903,0.0492027325347779,3,G5,178.23399999999998,3.993000000000002,61.45400000000004,14.0,0.0,0.0,0.0,0.0,66.0,3.0,0.0,0.0,3.0,0.0,82.79473218296738,2.610318687415942,539.0090985891403,Low,False
B-3575,dibenzothiophene,InChI=1S/C12H8S/c1-3-7-11-9(5-1)10-6-2-4-8-12(10)13-11/h1-8H,IYYZUPMFVPLQIF-UHFFFAOYSA-N,s1c2ccccc2c3ccccc13,-5.0981,0.3677392222153567,3,G5,184.263,4.054500000000002,59.33100000000003,13.0,1.0,0.0,1.0,0.0,62.0,3.0,0.0,0.0,3.0,0.0,80.43509545337886,2.642438259907001,512.8841359099093,Low,False
B-3579,acenaphthylene,InChI=1S/C12H8/c1-3-9-4-2-6-11-8-7-10(5-1)12(9)11/h1-8H,HXGDTGSAIMULJN-UHFFFAOYSA-N,c1cc2cccc3C=Cc(c1)c23,-3.9756,0.0078,2,G3,152.19599999999997,3.3236000000000017,52.87600000000002,12.0,0.0,0.0,0.0,0.0,56.0,2.0,0.0,1.0,3.0,0.0,71.14751769431189,2.642726571078704,437.6123343735664,Medium,False
B-3581,triphenylene,InChI=1S/C18H12/c1-2-8-14-13(7-1)15-9-3-4-11-17(15)18-12-6-5-10-16(14)18/h1-12H,SLGBZMMZGDRARJ-UHFFFAOYSA-N,c1ccc2c(c1)c3ccccc3c4ccccc24,-6.7447,0.0093499999999999,2,G3,228.294,5.146200000000003,78.96000000000005,18.0,0.0,0.0,0.0,0.0,84.0,4.0,0.0,0.0,4.0,0.0,105.4763967147026,2.463012369730741,651.5360736465454,Low,False
B-3585,11h-benzo(b)fluorene,"InChI=1S/C17H12/c1-2-6-13-11-17-15(9-12(13)5-1)10-14-7-3-4-8-16(14)17/h1-9,11H,10H2",HAPOJKSPCGLOOD-UHFFFAOYSA-N,C1c2ccccc2c3cc4ccccc4cc13,-7.733,0.1494000000000004,2,G3,216.283,4.411000000000002,72.19000000000003,17.0,0.0,0.0,0.0,0.0,80.0,3.0,0.0,1.0,4.0,0.0,100.5292728181636,2.0742919717753603,722.9398740759323,Low,False
B-3588,2-methylanthracene,"InChI=1S/C15H12/c1-11-6-7-14-9-12-4-2-3-5-13(12)10-15(14)8-11/h2-10H,1H3",GYMFBYTZOGMSQJ-UHFFFAOYSA-N,Cc1ccc2cc3ccccc3cc2c1,-6.9555,0.0272499999999999,2,G3,192.261,4.301420000000002,66.19100000000002,15.0,0.0,0.0,0.0,0.0,72.0,3.0,0.0,0.0,3.0,0.0,89.15967429736398,2.474936442179002,635.6567221133737,Low,False
B-3599,cumene,"InChI=1S/C9H12/c1-8(2)9-6-4-3-5-7-9/h3-8H,1-2H3",RWGFKTVRMDUZSP-UHFFFAOYSA-N,CC(C)c1ccccc1,-3.2924,0.0478880173608248,3,G5,120.19499999999996,2.8100000000000014,40.53100000000002,9.0,0.0,0.0,0.0,1.0,48.0,1.0,0.0,0.0,1.0,0.0,56.52622946268678,2.848234050597751,162.65300142116237,High,True
B-3623,pentamethylbenzene,"InChI=1S/C11H16/c1-7-6-8(2)10(4)11(5)9(7)3/h6H,1-5H3",BEZDDPMMPIDMGJ-UHFFFAOYSA-N,Cc1cc(C)c(C)c(C)c1C,-3.9807,0.0096499999999999,2,G3,148.249,3.2287000000000017,50.12700000000003,11.0,0.0,0.0,0.0,0.0,60.0,1.0,0.0,0.0,1.0,0.0,69.25611369147998,3.455546483817784,256.3300514214521,Medium,False