ID,Name,InChI,InChIKey,SMILES,Solubility,SD,Ocurrences,Group,MolWt,MolLogP,MolMR,HeavyAtomCount,NumHAcceptors,NumHDonors,NumHeteroatoms,NumRotatableBonds,NumValenceElectrons,NumAromaticRings,NumSaturatedRings,NumAliphaticRings,RingCount,TPSA,LabuteASA,BalabanJ,BertzCT,bin,is_sol
C-1445,"2,2',3,4,4',5'-hexachlorodiphenyl  ether",InChI=1S/C12H4Cl6O/c13-5-1-2-9(12(18)11(5)17)19-10-4-7(15)6(14)3-8(10)16/h1-4H,PHSJJYZIFPWCLZ-UHFFFAOYSA-N,ClC1=C(Cl)C(=C(OC2=CC(=C(Cl)C=C2Cl)Cl)C=C1)Cl,-8.31,0.0649999999999995,2,G3,376.881,7.399300000000001,83.018,19.0,1.0,0.0,7.0,2.0,100.0,2.0,0.0,0.0,2.0,9.23,139.4216399163579,2.4204932243657225,640.6021141858682,Low,False
C-1499,"2,2',3,4,4',5,5',6-octachlorodiphenyl  ether",InChI=1S/C12H2Cl8O/c13-3-1-5(15)6(2-4(3)14)21-12-10(19)8(17)7(16)9(18)11(12)20/h1-2H,PKOSPVZTRLMBSK-UHFFFAOYSA-N,ClC1=C(Cl)C=C(OC2=C(Cl)C(=C(Cl)C(=C2Cl)Cl)Cl)C(=C1)Cl,-10.1,0.0200000000000004,2,G3,445.7710000000001,8.7061,93.038,21.0,1.0,0.0,9.0,2.0,112.0,2.0,0.0,0.0,2.0,9.23,160.0281723701212,2.576110067493981,698.9229701386387,Low,False
C-1507,(r)-quizalofop-ethyl,"InChI=1S/C19H17ClN2O4/c1-3-24-19(23)12(2)25-14-5-7-15(8-6-14)26-18-11-21-17-10-13(20)4-9-16(17)22-18/h4-12H,3H2,1-2H3",OSUHJPCHFDQAIT-UHFFFAOYSA-N,CCOC(=O)C(C)OC1=CC=C(OC2=NC3=C(C=C(Cl)C=C3)N=C2)C=C1,-5.97,0.0622000000000002,2,G3,372.8080000000001,4.405900000000004,97.78700000000002,26.0,6.0,0.0,7.0,6.0,134.0,3.0,0.0,0.0,3.0,70.54,155.2395924066183,1.6714281501040391,915.061112940396,Low,False
C-1514,difenoconazole,"InChI=1S/C19H17Cl2N3O3/c1-13-9-25-19(27-13,10-24-12-22-11-23-24)17-7-6-16(8-18(17)21)26-15-4-2-14(20)3-5-15/h2-8,11-13H,9-10H2,1H3",BQYJATMQXGBDHF-UHFFFAOYSA-N,CC1COC(C[N]2C=NC=N2)(O1)C3=C(Cl)C=C(OC4=CC=C(Cl)C=C4)C=C3,-4.91,0.2386500000000002,2,G3,406.2690000000001,4.665500000000004,101.17700000000002,27.0,6.0,0.0,8.0,5.0,140.0,3.0,1.0,1.0,4.0,58.400000000000006,166.1385205302702,1.6193497515069293,918.4591276990244,Low,False
C-1526,hexamethyleneimine;  homopiperidine;  azacycloheptane; azepane,"InChI=1S/C6H13N/c1-2-4-6-7-5-3-1/h7H,1-6H2",ZSIQJIWKELUFRJ-UHFFFAOYSA-N,C1CCCNCC1,-0.49,0.3620189771,2,G3,99.177,1.15,31.337699999999987,7.0,1.0,1.0,1.0,0.0,42.0,0.0,1.0,1.0,1.0,12.03,45.1079926298914,2.0416666666666665,23.79319390447952,High,True
C-1537,4-heptanone;  dipropyl  ketone,"InChI=1S/C7H14O/c1-3-5-7(8)6-4-2/h3-6H2,1-2H3",HCFAJYNVAYBARA-UHFFFAOYSA-N,CCCC(=O)CCC,-1.48,0.1061510977595406,3,G5,114.188,2.1557000000000004,34.822999999999986,8.0,1.0,0.0,1.0,4.0,48.0,0.0,0.0,0.0,0.0,17.07,51.09042581425295,3.0551722039096187,58.78707744334402,High,True
C-1546,"(e)-1,2-diiodoethene;  1,2-diiodoethylene (trans)",InChI=1S/C2H2I2/c3-1-2-4/h1-2H/b2-1+,CVOGMKGEVNGRSK-OWOJBTEDSA-N,I\C=C\I,-3.22,0.0283499999999998,2,G3,279.846,2.3276000000000003,37.18000000000001,4.0,0.0,0.0,2.0,0.0,24.0,0.0,0.0,0.0,0.0,0.0,52.938266352129176,2.549193338482967,19.219280948873624,High,True
C-1551,dl-norvaline;  dl-2-aminopentanoic  acid,"InChI=1S/C5H11NO2/c1-2-3-4(6)5(7)8/h4H,2-3,6H2,1H3,(H,7,8)",SNDPXSYFESPGGJ-UHFFFAOYSA-N,CCCC(N)C(O)=O,-0.11,0.0311054478972557,3,G5,117.14799999999998,0.1983999999999999,30.51919999999999,8.0,2.0,2.0,3.0,3.0,48.0,0.0,0.0,0.0,0.0,63.32,48.49466603466847,3.318087197283996,82.49785513558373,High,True
C-1561,"2-bromo-2,2-diethylacetamide","InChI=1S/C6H12BrNO/c1-3-6(7,4-2)5(8)9/h3-4H2,1-2H3,(H2,8,9)",ACEYAMOAGUDVAQ-UHFFFAOYSA-N,CCC(Br)(CC)C(N)=O,-1.44,0.2011999999999999,2,G3,194.072,1.4253999999999998,41.43440000000001,9.0,1.0,1.0,3.0,3.0,54.0,0.0,0.0,0.0,0.0,43.09,63.93292200251042,4.090340515801205,109.6254878262668,High,True
C-1569,"dl-methylsuccinic  acid;  dl-2-methyl-1,4-butanedioic acid","InChI=1S/C5H8O4/c1-3(5(8)9)2-4(6)7/h3H,2H2,1H3,(H,6,7)(H,8,9)",WXUAQHNMJWJLTG-UHFFFAOYSA-N,CC(CC(O)=O)C(O)=O,0.48,0.1235552867702911,3,G5,132.11499999999998,0.1818,29.05259999999999,9.0,2.0,2.0,4.0,3.0,52.0,0.0,0.0,0.0,0.0,74.6,52.110531189895525,3.632432151939845,128.919684538544,High,True
C-1573,3-methyladipic  acid,"InChI=1S/C7H12O4/c1-5(4-7(10)11)2-3-6(8)9/h5H,2-4H2,1H3,(H,8,9)(H,10,11)",SYEOWUNSTUDKGM-UHFFFAOYSA-N,CC(CCC(O)=O)CC(O)=O,0.09,0.04995,2,G3,160.16899999999998,0.962,38.28659999999999,11.0,2.0,2.0,4.0,5.0,64.0,0.0,0.0,0.0,0.0,74.6,64.84041541868874,3.4425479949638413,152.51956340253028,High,True
C-1580,"cycluron; 3-cyclooctyl-1,1-dimethylurea","InChI=1S/C11H22N2O/c1-13(2)11(14)12-10-8-6-4-3-5-7-9-10/h10H,3-9H2,1-2H3,(H,12,14)",DQZCVNGCTZLGAQ-UHFFFAOYSA-N,CN(C)C(=O)NC1CCCCCCC1,-2.26,0.059492744655686,3,G5,198.30999999999992,2.3705,58.32570000000004,14.0,1.0,1.0,3.0,1.0,82.0,0.0,1.0,1.0,1.0,32.34,86.85405897212159,2.2955379333514614,172.12634489929064,High,True
C-1582,"shikimic  acid;  1-carboxy-3,4,5-trihydroxy-1-cyclohexene","InChI=1S/C7H10O5/c8-4-1-3(7(11)12)2-5(9)6(4)10/h1,4-6,8-10H,2H2,(H,11,12)",JXOHGGNKMLTUBP-UHFFFAOYSA-N,OC1CC(=CC(O)C1O)C(O)=O,0.01,0.0373999999999999,2,G3,174.15199999999996,-1.5162000000000004,38.3562,12.0,4.0,4.0,5.0,1.0,68.0,0.0,0.0,1.0,1.0,97.99,68.57192663732351,2.8094499558698964,221.83662511442932,High,True
C-1586,heptadecanoic acid;  margaric acid,"InChI=1S/C17H34O2/c1-2-3-4-5-6-7-8-9-10-11-12-13-14-15-16-17(18)19/h2-16H2,1H3,(H,18,19)",KEMQGTRYUADPNZ-UHFFFAOYSA-N,CCCCCCCCCCCCCCCCC(O)=O,-4.69,0.4784358890000002,2,G3,270.45699999999994,5.9424000000000055,82.56480000000008,19.0,1.0,1.0,2.0,15.0,114.0,0.0,0.0,0.0,0.0,37.3,119.53408071041513,2.931237274494918,189.7010862108803,Low,False
C-1593,succinimide,"InChI=1S/C4H5NO2/c6-3-1-2-4(7)5-3/h1-2H2,(H,5,6,7)",KZNICNPSHKQLFF-UHFFFAOYSA-N,O=C1CCC(=O)N1,0.39,0.0468846871,2,G3,99.089,-0.577,22.383699999999997,7.0,2.0,1.0,3.0,0.0,38.0,0.0,1.0,1.0,1.0,46.17,40.70115260118572,2.5537050272065858,104.8582023226588,High,True
C-1626,5-methylcytosine,"InChI=1S/C5H7N3O/c1-3-2-7-5(9)8-4(3)6/h2H,1H3,(H3,6,7,8,9)",LRSASMSXMSNRBT-UHFFFAOYSA-N,CC1=CNC(=O)N=C1N,-1.44,0.4193787071371173,3,G5,125.131,-0.3394800000000001,34.00709999999999,9.0,3.0,2.0,4.0,0.0,48.0,1.0,0.0,0.0,1.0,71.77,51.73705399284307,3.3360928870055955,265.15077181093443,High,True
C-1630,Beta-d-Fructose,"InChI=1S/C6H12O6/c7-1-3(9)5(11)6(12)4(10)2-8/h3,5-9,11-12H,1-2H2",BJHIKXHVCXFQLS-UHFFFAOYSA-N,OCC(O)C(O)C(O)C(=O)CO,0.32,0.0095,2,G3,180.156,-3.3772,37.199000000000005,12.0,6.0,5.0,6.0,5.0,72.0,0.0,0.0,0.0,0.0,118.22,68.69665246083639,4.07958305039934,146.97373660251156,High,True
C-1633,"1,2-dicyanobenzene;  phthalonitrile",InChI=1S/C8H4N2/c9-5-7-3-1-2-4-8(7)6-10/h1-4H,XQZYPMVTSDWCCE-UHFFFAOYSA-N,N#CC1=C(C=CC=C1)C#N,-2.38,0.067591440020704,3,G5,128.13399999999996,1.42996,35.872000000000014,10.0,2.0,0.0,2.0,0.0,46.0,1.0,0.0,0.0,1.0,47.58,58.94644671122761,3.284977738882917,281.76485559073006,High,True
C-1646,"5,5-spirocycloheptylbarbituric  acid;  spiro-5,5-hexamethylenebarbituric acid","InChI=1S/C10H14N2O3/c13-7-10(5-3-1-2-4-6-10)8(14)12-9(15)11-7/h1-6H2,(H2,11,12,13,14,15)",RSWPVXFVQHCCCI-UHFFFAOYSA-N,O=C1NC(=O)C2(CCCCCC2)C(=O)N1,-2.98,0.094,2,G3,210.233,0.6929999999999998,51.81640000000002,15.0,3.0,2.0,5.0,0.0,82.0,0.0,2.0,2.0,2.0,75.27,87.59635841768797,2.26223122785147,294.62919048309067,High,True
C-1648,propionanilide,"InChI=1S/C9H11NO/c1-2-9(11)10-8-6-4-3-5-7-8/h3-7H,2H2,1H3,(H,10,11)",ZTHRQJQJODGZHV-UHFFFAOYSA-N,CCC(=O)NC1=CC=CC=C1,-1.55,0.1849999999999999,2,G3,149.19299999999998,2.0351,45.362700000000025,11.0,1.0,1.0,2.0,2.0,58.0,1.0,0.0,0.0,1.0,29.1,66.2376137463386,2.57930229200732,230.57786591623355,High,True
C-1685,vamidothion,"InChI=1S/C8H18NO4PS2/c1-7(8(10)9-2)15-5-6-16-14(11,12-3)13-4/h7H,5-6H2,1-4H3,(H,9,10)",LESVOLZBIFDZGS-UHFFFAOYSA-N,CNC(=O)C(C)SCCS[P](=O)(OC)OC,0.54,0.302,2,G3,287.343,1.9882,70.06920000000004,16.0,6.0,1.0,8.0,8.0,96.0,0.0,0.0,0.0,0.0,64.63000000000001,104.69006566146822,3.7569931470473055,256.42286534333687,High,True
C-1692,"2,4-dihydroxybenzoic  acid;  beta-resorcylic  acid","InChI=1S/C7H6O4/c8-4-1-2-5(7(10)11)6(9)3-4/h1-3,8-9H,(H,10,11)",UIAFKZKHHVMJGS-UHFFFAOYSA-N,OC(=O)C1=CC=C(O)C=C1O,-1.41,0.008,2,G3,154.12099999999998,0.7959999999999998,36.730900000000005,11.0,3.0,3.0,4.0,1.0,58.0,1.0,0.0,0.0,1.0,77.76,62.34056859052537,3.1960696621259195,292.492089776386,High,True
C-1696,imidazole-2-sulfonic acid,"InChI=1S/C3H4N2O3S/c6-9(7,8)3-4-1-2-5-3/h1-2H,(H,4,5)(H,6,7,8)",LYLDIIUFTYRPPK-UHFFFAOYSA-N,O[S](=O)(=O)C1=NC=C[NH]1,-0.3,0.1130999999999999,2,G3,148.143,-0.3435999999999998,28.4023,9.0,3.0,2.0,6.0,1.0,50.0,1.0,0.0,0.0,1.0,83.04999999999998,51.48884753149841,3.200427888623847,274.0163218226503,High,True
C-1712,8-methylpurine,"InChI=1S/C6H6N4/c1-4-9-5-2-7-3-8-6(5)10-4/h2-3H,1H3,(H,7,8,9,10)",UZQYFLWZKIMYKS-UHFFFAOYSA-N,CC1=NC2=C([NH]1)C=NC=N2,-0.41,0.0135499999999999,2,G3,134.14199999999997,0.6613199999999998,36.4207,10.0,3.0,1.0,4.0,0.0,50.0,2.0,0.0,0.0,2.0,54.46,57.34611412948262,2.876510166944625,318.2753028763377,High,True
C-1729,"2,3-pyridinedicarboxylic  acid;  quinolinic  acid","InChI=1S/C7H5NO4/c9-6(10)4-2-1-3-8-5(4)7(11)12/h1-3H,(H,9,10)(H,11,12)",GJAWHXHKYYXBSV-UHFFFAOYSA-N,OC(=O)C1=CC=CN=C1C(O)=O,-1.48,0.1492,2,G3,167.11999999999998,0.478,38.1556,12.0,3.0,2.0,5.0,2.0,62.0,1.0,0.0,0.0,1.0,87.49000000000001,67.29244703371624,3.267076195703771,300.933190204761,High,True
C-1745,"prasterone  acetate;  dehydroepiandrosterone  acetate; prasterone acetate; 5,6-dehydroisoandrosterone acetate","InChI=1S/C21H30O3/c1-13(22)24-15-8-10-20(2)14(12-15)4-5-16-17-6-7-19(23)21(17,3)11-9-18(16)20/h4,15-18H,5-12H2,1-3H3",NCMZQTLCXHGLOK-UHFFFAOYSA-N,CC(=O)OC1CCC2(C)C3CCC4(C)C(CCC4=O)C3CC=C2C1,-4.53,0.0350000000000001,2,G3,330.4680000000001,4.450000000000004,92.26400000000004,24.0,3.0,0.0,3.0,1.0,132.0,0.0,3.0,4.0,4.0,43.370000000000005,144.76175509905497,1.5973719061421665,606.2051148204893,Low,False
C-1758,7-methylpteridine,"InChI=1S/C7H6N4/c1-5-2-9-6-3-8-4-10-7(6)11-5/h2-4H,1H3",KOCYTWBTXZOUFS-UHFFFAOYSA-N,CC1=NC2=C(C=NC=N2)N=C1,-0.01,0.4145870261142071,3,G5,146.153,0.7282199999999999,39.865000000000016,11.0,4.0,0.0,4.0,0.0,54.0,2.0,0.0,0.0,2.0,51.56,63.35660168941482,2.8289012156206965,384.85228689314886,High,True
C-1789,2-pteridinone,"InChI=1S/C6H4N4O/c11-6-9-3-4-5(10-6)8-2-1-7-4/h1-3H,(H,8,9,10,11)",VWXIHLCLIOQWRA-UHFFFAOYSA-N,O=C1NC2=C(C=N1)N=CC=N2,-2.0,0.0265,2,G3,148.125,-0.2869000000000001,37.953700000000005,11.0,4.0,1.0,5.0,0.0,54.0,2.0,0.0,0.0,2.0,71.53,61.15318167506198,2.935350797972025,435.53037088475946,High,True
C-1793,isoguanine;  6-amino-3h-purin-2-one,"InChI=1S/C5H5N5O/c6-3-2-4(8-1-7-2)10-5(11)9-3/h1H,(H4,6,7,8,9,10,11)",DRAVOWXCEBXPTN-UHFFFAOYSA-N,NC1=NC(=O)NC2=C1N=C[NH]2,-3.38,0.0105000000000001,2,G3,151.12900000000002,-0.7716000000000003,38.92179999999999,11.0,4.0,3.0,6.0,0.0,56.0,2.0,0.0,0.0,2.0,100.45,60.4825848121425,3.0196561210532726,441.3146575841347,High,True
C-1823,2-chloropteridine,InChI=1S/C6H3ClN4/c7-6-10-3-4-5(11-6)9-2-1-8-4/h1-3H,JISQBJRFTCXDEO-UHFFFAOYSA-N,ClC1=NC2=C(C=N1)N=CC=N2,-0.71,0.0055999999999999,2,G3,166.57100000000003,1.0731999999999997,40.138000000000005,11.0,4.0,0.0,5.0,0.0,54.0,2.0,0.0,0.0,2.0,51.56,67.29492580189988,2.8289012156206965,388.9939963432252,High,True
C-1832,4-aminotoluene-2-sulfonic acid,"InChI=1S/C7H9NO3S/c1-5-2-3-6(8)4-7(5)12(9,10)11/h2-4H,8H2,1H3,(H,9,10,11)",BRKFTWHPLMMNHF-UHFFFAOYSA-N,CC1=C(C=C(N)C=C1)[S](O)(=O)=O,-1.62,0.1985398679000001,2,G3,187.22,0.82392,45.40600000000001,12.0,3.0,2.0,5.0,1.0,66.0,1.0,0.0,0.0,1.0,80.39,70.7648719409469,3.434493908900649,397.1125573446092,High,True
C-1835,6-methoxypteridine,"InChI=1S/C7H6N4O/c1-12-6-3-9-7-5(11-6)2-8-4-10-7/h2-4H,1H3",AWIJPALBOQNRBS-UHFFFAOYSA-N,COC1=NC2=C(N=CN=C2)N=C1,-1.14,0.1149999999999999,2,G3,162.15200000000002,0.4283999999999998,41.680000000000014,12.0,5.0,0.0,5.0,1.0,60.0,2.0,0.0,0.0,2.0,60.790000000000006,68.47014691892171,2.673996462761564,403.2834383297276,High,True
C-1846,pteridine-2-thione,"InChI=1S/C6H4N4S/c11-6-9-3-4-5(10-6)8-2-1-7-4/h1-3H,(H,8,9,10,11)",DAAQPMSPBHQGQA-UHFFFAOYSA-N,S=C1NC2=C(C=N1)N=CC=N2,-2.68,0.0449999999999999,2,G3,164.193,1.0823899999999995,42.517700000000005,11.0,4.0,1.0,5.0,0.0,54.0,2.0,0.0,0.0,2.0,54.46,67.35043982222308,2.935350797972025,435.53037088475946,High,True
C-1852,8-methyl-8h-pteridin-7-one,"InChI=1S/C7H6N4O/c1-11-6(12)3-9-5-2-8-4-10-7(5)11/h2-4H,1H3",AUYUOHQABGMBSA-UHFFFAOYSA-N,CN1C(=O)C=NC2=C1N=CN=C2,-0.92,0.0055499999999999,2,G3,162.15200000000002,-0.2765000000000002,42.57400000000001,12.0,5.0,0.0,5.0,0.0,60.0,2.0,0.0,0.0,2.0,60.67,67.72809527605392,3.0052440756263734,476.035224843126,High,True
C-1854,3-methyl-3h-pteridin-4-one,"InChI=1S/C7H6N4O/c1-11-4-10-6-5(7(11)12)8-2-3-9-6/h2-4H,1H3",ADZLJYXPHYDHJU-UHFFFAOYSA-N,CN1C=NC2=C(N=CC=N2)C1=O,-1.07,0.00755,2,G3,162.15199999999996,-0.2765000000000002,42.57400000000001,12.0,5.0,0.0,5.0,0.0,60.0,2.0,0.0,0.0,2.0,60.67,67.7280952760539,3.010232459961935,476.0352248431261,High,True
C-1855,raffinose,"InChI=1S/C18H32O16/c19-1-5-8(22)11(25)13(27)16(31-5)30-3-7-9(23)12(26)14(28)17(32-7)34-18(4-21)15(29)10(24)6(2-20)33-18/h5-17,19-29H,1-4H2",MUPFEKGTMRGPLJ-UHFFFAOYSA-N,OCC1OC(OCC2OC(OC3(CO)OC(CO)C(O)C3O)C(O)C(O)C2O)C(O)C(O)C1O,0.3,0.355,2,G3,504.4380000000001,-7.571399999999989,101.2748,34.0,16.0,11.0,16.0,8.0,200.0,0.0,3.0,3.0,3.0,268.67999999999995,192.23007093367468,1.6897643338729131,653.442936810205,High,True
C-1881,7-dimethylaminopteridine,"InChI=1S/C8H9N5/c1-13(2)7-4-10-6-3-9-5-11-8(6)12-7/h3-5H,1-2H3",MPTKEBUBIGZGJH-UHFFFAOYSA-N,CN(C)C1=NC2=C(C=NC=N2)N=C1,-0.09,0.0349999999999999,2,G3,175.19500000000002,0.4857999999999997,49.45500000000002,13.0,5.0,0.0,5.0,1.0,66.0,2.0,0.0,0.0,2.0,54.8,75.48137747401479,2.6198738697283104,425.55882955700895,High,True
C-1896,aziprotryne,"InChI=1S/C7H11N7S/c1-4(2)9-5-10-6(13-14-8)12-7(11-5)15-3/h4H,1-3H3,(H,9,10,11,12)",AFIIBUOYKYSPKB-UHFFFAOYSA-N,CSC1=NC(=NC(=N1)N=[N]#N)NC(C)C,-3.48,0.0662,2,G3,225.28100000000003,2.3556,59.17270000000002,15.0,6.0,1.0,8.0,4.0,80.0,1.0,0.0,0.0,1.0,99.46,91.356809747671,3.0461652404209065,384.92513219178056,High,True
C-1908,mepivacaine,"InChI=1S/C15H22N2O/c1-11-7-6-8-12(2)14(11)16-15(18)13-9-4-5-10-17(13)3/h6-8,13H,4-5,9-10H2,1-3H3,(H,16,18)",INWLQCZOYSRPNW-UHFFFAOYSA-N,CN1CCCCC1C(=O)NC2=C(C)C=CC=C2C,-1.99,0.22175,2,G3,246.354,2.7262400000000007,74.81470000000004,18.0,2.0,1.0,3.0,2.0,98.0,1.0,1.0,1.0,2.0,32.34,109.1812689493924,2.109479849231336,421.869783860833,High,True
C-1925,"2-benzoyloxy-n,n-(diethyl)propionamide;  2-benzoyloxy-n,n-(diethyl)propanoic acid amide","InChI=1S/C14H19NO3/c1-4-15(5-2)13(16)11(3)18-14(17)12-9-7-6-8-10-12/h6-11H,4-5H2,1-3H3",BZZFPIRKNVWTKJ-UHFFFAOYSA-N,CCN(CC)C(=O)C(C)OC(=O)C1=CC=CC=C1,-2.28,0.0899999999999998,2,G3,249.31,2.1003,69.24750000000004,18.0,3.0,0.0,4.0,5.0,98.0,1.0,0.0,0.0,1.0,46.61,107.54736313446764,2.6224657007216408,398.7599479118408,High,True
C-1942,"6,7-diethylpteridine","InChI=1S/C10H12N4/c1-3-7-8(4-2)14-10-9(13-7)5-11-6-12-10/h5-6H,3-4H2,1-2H3",ULZKCUXGSDTDQB-UHFFFAOYSA-N,CCC1=NC2=C(N=CN=C2)N=C1CC,-0.18,0.03,2,G3,188.234,1.5445999999999998,53.88400000000002,14.0,4.0,0.0,4.0,2.0,72.0,2.0,0.0,0.0,2.0,51.56,82.45142803260464,2.687641593424723,410.31631658149047,High,True
C-1959,equilin,"InChI=1S/C18H20O2/c1-18-9-8-14-13-5-3-12(19)10-11(13)2-4-15(14)16(18)6-7-17(18)20/h3-5,10,14,16,19H,2,6-9H2,1H3",WKRLQDKEXYKHJB-UHFFFAOYSA-N,CC12CCC3C(=CCC4=C3C=CC(=C4)O)C1CCC2=O,-4.99,0.145,2,G3,268.356,3.7375000000000025,77.70680000000003,20.0,2.0,1.0,2.0,0.0,104.0,1.0,2.0,3.0,4.0,37.3,119.05936785172412,1.7742382229521887,628.3054350603156,Low,False
C-2023,mepanipyrim;  2-anilino-4-methyl-6-(1-propynyl)pyrimidine,"InChI=1S/C14H13N3/c1-3-7-13-10-11(2)15-14(17-13)16-12-8-5-4-6-9-12/h4-6,8-10H,1-2H3,(H,15,16,17)",CIFWZNRJIBNXRE-UHFFFAOYSA-N,CC#CC1=NC(=NC(=C1)C)NC2=CC=CC=C2,-4.6,0.1287500000000001,2,G3,223.279,2.9000200000000005,69.04570000000002,17.0,3.0,1.0,3.0,2.0,84.0,2.0,0.0,0.0,2.0,37.81,100.93664932050778,2.289333048943917,565.0114606278768,Low,False
C-2037,"6,7-diethyl-1h-pteridine-2,4-dione;  ""2,4-dihydroxy-6,7-diethylpteridine""","InChI=1S/C10H12N4O2/c1-3-5-6(4-2)12-8-7(11-5)9(15)14-10(16)13-8/h3-4H2,1-2H3,(H2,12,13,14,15,16)",PNLRJGYHLCFMLM-UHFFFAOYSA-N,CCC1=NC2=C(N=C1CC)C(=O)NC(=O)N2,-2.39,0.0050000000000001,2,G3,220.232,0.1311999999999998,59.5354,16.0,4.0,2.0,6.0,2.0,84.0,2.0,0.0,0.0,2.0,91.5,90.77447223269218,2.884451093503013,641.2895800617196,High,True
C-2090,dinoseb  acetate,"InChI=1S/C12H14N2O6/c1-4-7(2)10-5-9(13(16)17)6-11(14(18)19)12(10)20-8(3)15/h5-7H,4H2,1-3H3",RDJTWDKSYLLHRW-UHFFFAOYSA-N,CCC(C)C1=C(OC(C)=O)C(=CC(=C1)[N+]([O-])=O)[N+]([O-])=O,-2.25,0.0708999999999999,2,G3,282.252,2.941800000000001,69.76580000000001,20.0,6.0,0.0,8.0,5.0,108.0,1.0,0.0,0.0,1.0,112.58,114.20207458042688,3.6073037989964063,569.3111293243142,High,True
C-2134,equilenin,"InChI=1S/C18H18O2/c1-18-9-8-14-13-5-3-12(19)10-11(13)2-4-15(14)16(18)6-7-17(18)20/h2-5,10,16,19H,6-9H2,1H3",PDRGHUMCVRDZLQ-UHFFFAOYSA-N,CC12CCC3=C(C=CC4=C3C=CC(=C4)O)C1CCC2=O,-4.96,0.1417999999999999,2,G3,266.34,3.9444000000000026,79.02280000000003,20.0,2.0,1.0,2.0,0.0,102.0,2.0,1.0,2.0,4.0,37.3,117.9766981115864,1.949840715303168,731.5207964175199,Low,False
C-2201,flumequine,"InChI=1S/C14H12FNO3/c1-7-2-3-8-4-9(15)5-10-12(8)16(7)6-11(13(10)17)14(18)19/h4-7H,2-3H2,1H3,(H,18,19)",DPSPPJIUMHPXMA-UHFFFAOYSA-N,CC1CCC2=CC(=CC3=C2N1C=C(C(O)=O)C3=O)F,-3.74,0.0050000000000001,2,G3,261.25199999999995,2.346,68.15730000000002,19.0,3.0,1.0,5.0,1.0,98.0,2.0,0.0,1.0,3.0,59.3,107.6443798924376,2.534425296750556,763.3556201182145,Medium,False
C-2249,"2,4'-ddt","InChI=1S/C14H9Cl5/c15-10-7-5-9(6-8-10)13(14(17,18)19)11-3-1-2-4-12(11)16/h1-8,13H",CVUGPAFCQJIYDT-UHFFFAOYSA-N,ClC1=CC=C(C=C1)C(C2=C(Cl)C=CC=C2)C(Cl)(Cl)Cl,-7.13,0.2549000000000001,2,G3,354.491,6.495500000000002,85.03700000000002,19.0,0.0,0.0,5.0,2.0,100.0,2.0,0.0,0.0,2.0,0.0,136.73471268876256,2.546652599180588,556.7941614219593,Low,False
C-2297,norfloxacin,"InChI=1S/C16H18FN3O3/c1-2-19-9-11(16(22)23)15(21)10-7-12(17)14(8-13(10)19)20-5-3-18-4-6-20/h7-9,18H,2-6H2,1H3,(H,22,23)",OGJPXUAPXNRGGI-UHFFFAOYSA-N,CCN1C=C(C(O)=O)C(=O)C2=C1C=C(N3CCNCC3)C(=C2)F,-2.76,0.1,2,G3,319.33600000000007,1.2683,85.88200000000003,23.0,5.0,2.0,7.0,3.0,122.0,2.0,1.0,1.0,3.0,74.57000000000001,131.68395997504226,2.2435848523617365,825.4107594006955,High,True
C-2304,imazaquine,"InChI=1S/C17H17N3O3/c1-9(2)17(3)16(23)19-14(20-17)13-11(15(21)22)8-10-6-4-5-7-12(10)18-13/h4-9H,1-3H3,(H,21,22)(H,19,20,23)",CABMTIJINOIHOD-UHFFFAOYSA-N,CC(C)C1(C)N=C(NC1=O)C2=NC3=C(C=CC=C3)C=C2C(O)=O,-3.72,0.0905000000000002,2,G3,311.34100000000007,2.2241,86.62500000000006,23.0,4.0,2.0,6.0,3.0,118.0,2.0,0.0,1.0,3.0,91.65,132.80888401557405,2.2157870607489283,857.2824566629206,Medium,False
C-2376,brucine * 4 h2o,"InChI=1S/C23H26N2O4/c1-27-16-8-14-15(9-17(16)28-2)25-20(26)10-18-21-13-7-19-23(14,22(21)25)4-5-24(19)11-12(13)3-6-29-18/h3,8-9,13,18-19,21-22H,4-7,10-11H2,1-2H3",RRKTZKIUPZVBMF-UHFFFAOYSA-N,COC1=CC2=C(C=C1OC)C34CCN5CC6=CCOC7CC(=O)N2C3C7C6CC45,-2.79,0.3500000000000001,2,G3,394.4710000000001,2.1097,106.51300000000002,29.0,5.0,0.0,6.0,2.0,152.0,1.0,4.0,6.0,7.0,51.24,169.93265423985082,1.521933594875605,973.869675469949,High,True
C-2427,"2,2',3,3',4,4',5,5'-octachlorodiphenyl  ether",InChI=1S/C12H2Cl8O/c13-3-1-5(9(17)11(19)7(3)15)21-6-2-4(14)8(16)12(20)10(6)18/h1-2H,IXZVOZCULZBCDY-UHFFFAOYSA-N,ClC1=CC(=C(Cl)C(=C1Cl)Cl)OC2=CC(=C(Cl)C(=C2Cl)Cl)Cl,-10.1,0.0150000000000005,2,G3,445.771,8.7061,93.038,21.0,1.0,0.0,9.0,2.0,112.0,2.0,0.0,0.0,2.0,9.23,160.02817237012124,2.538645074216888,666.6729701386387,Low,False
C-2439,"1,2,3,6,7,8-hexachlorodibenzofuran",InChI=1S/C12H2Cl6O/c13-4-1-3-7-6(2-5(14)8(15)10(7)17)19-12(3)11(18)9(4)16/h1-2H,JEYJJJXOFWNEHN-UHFFFAOYSA-N,ClC1=CC2=C(C(=C1Cl)Cl)C3=C(O2)C(=C(Cl)C(=C3)Cl)Cl,-10.3,0.0149999999999996,2,G3,374.865,7.5064,83.77999999999999,19.0,1.0,0.0,7.0,0.0,98.0,3.0,0.0,0.0,3.0,13.14,137.40865880833422,2.620539563600211,835.6989004553219,Low,False