ID,Name,InChI,InChIKey,SMILES,Solubility,SD,Ocurrences,Group,MolWt,MolLogP,MolMR,HeavyAtomCount,NumHAcceptors,NumHDonors,NumHeteroatoms,NumRotatableBonds,NumValenceElectrons,NumAromaticRings,NumSaturatedRings,NumAliphaticRings,RingCount,TPSA,LabuteASA,BalabanJ,BertzCT,bin,is_sol
B-1876,"pteridine, 4-methyl-","InChI=1S/C7H6N4/c1-5-6-7(11-4-10-5)9-3-2-8-6/h2-4H,1H3",WESDBLALURHRDL-UHFFFAOYSA-N,Cc1ncnc2nccnc12,-0.4658,0.1690046942148846,3,G5,146.15299999999996,0.7282199999999999,39.86500000000001,11.0,4.0,0.0,4.0,0.0,54.0,2.0,0.0,0.0,2.0,51.56,63.356601689414816,2.9131611636048604,379.6022868931489,High,True
B-1881,glyphosine,"InChI=1S/C4H11NO8P2/c6-4(7)1-5(2-14(8,9)10)3-15(11,12)13/h1-3H2,(H,6,7)(H2,8,9,10)(H2,11,12,13)",OXHDYFKENBXUEM-UHFFFAOYSA-N,OC(=O)CN(C[P](O)(O)=O)C[P](O)(O)=O,-0.0256,0.0728,2,G3,263.079,-1.3566000000000005,48.16400000000002,15.0,4.0,5.0,11.0,6.0,90.0,0.0,0.0,0.0,0.0,155.6,84.65248273494227,4.525410345249786,292.6033589341277,High,True
B-1899,benz(a)anthracene-7-methyl,"InChI=1S/C19H14/c1-13-16-8-4-3-7-15(16)12-19-17(13)11-10-14-6-2-5-9-18(14)19/h2-12H,1H3",DIIFUCUPDHMNIV-UHFFFAOYSA-N,Cc1c2ccccc2cc3c4ccccc4ccc13,-7.343,0.3515000000000001,2,G3,242.321,5.454620000000004,83.69700000000005,19.0,0.0,0.0,0.0,0.0,90.0,4.0,0.0,0.0,4.0,0.0,111.8413388290992,2.3181930833020647,916.7400111490208,Low,False
B-1915,acid red 18,"InChI=1S/C20H14N2O10S3.3Na/c23-16-7-5-11-9-12(33(24,25)26)10-18(35(30,31)32)19(11)20(16)22-21-15-6-8-17(34(27,28)29)14-4-2-1-3-13(14)15;;;/h1-10,21H,(H,24,25,26)(H,27,28,29)(H,30,31,32);;;/q;3*+1/p-3/b22-20+;;;",IVNZBWNBYXERPK-DZGBHZPSSA-K,[Na+].[Na+].[Na+].[O-][S](=O)(=O)c1cc2C=CC(=O)\C(=N/Nc3ccc(c4ccccc34)[S]([O-])(=O)=O)c2c(c1)[S]([O-])(=O)=O,-0.8783,0.29075733365,2,G3,604.4830000000003,-8.023800000000016,118.4803,38.0,12.0,1.0,18.0,5.0,182.0,3.0,0.0,1.0,4.0,213.06,283.63744581717367,2.4066654295562085e-06,1822.193545468072,High,True
B-1919,"1,2-naphthalenedione, 1-oxime","InChI=1S/C10H7NO2/c12-9-6-5-7-3-1-2-4-8(7)10(9)11-13/h1-6,12H",YXAOOTNFFAQIPZ-UHFFFAOYSA-N,Oc1ccc2ccccc2c1N=O,-2.9374,0.3494499999999998,2,G3,173.17099999999996,2.9433000000000007,51.06780000000001,13.0,3.0,1.0,3.0,1.0,64.0,2.0,0.0,0.0,2.0,49.66,74.60203338765866,2.9117844920054865,465.4314410863231,High,True
B-1920,"4,4'-dicyano-4,4'azo-di-valeric acid","InChI=1S/C12H16N4O4/c1-11(7-13,5-3-9(17)18)15-16-12(2,8-14)6-4-10(19)20/h3-6H2,1-2H3,(H,17,18)(H,19,20)/p-2/t11-,12+",VFXXTYGQYWRHJP-TXEJJXNPSA-L,C[C@@](CCC([O-])=O)(N=N[C@](C)(CCC([O-])=O)C#N)C#N,-2.0083,0.2661598409500001,2,G3,278.268,-0.936639999999999,61.37400000000003,20.0,8.0,0.0,8.0,8.0,108.0,0.0,0.0,0.0,0.0,152.55999999999997,115.89706319809832,4.92042108277526,446.6662405501103,High,True
B-1938,"butanoic acid, 2-amino-, (.+-.)-","InChI=1S/C4H9NO2/c1-2-3(5)4(6)7/h3H,2,5H2,1H3,(H,6,7)",QWCKQJZIFLGMSD-UHFFFAOYSA-N,CCC(N)C(O)=O,0.2868,0.0207895807236862,3,G5,103.12099999999998,-0.1916999999999999,25.9022,7.0,2.0,2.0,3.0,2.0,42.0,0.0,0.0,0.0,0.0,63.32,42.12972392027186,3.34341705895396,72.09004635215048,High,True
B-1941,chlorpyrifos,"InChI=1S/C9H11Cl3NO3PS/c1-3-14-17(18,15-4-2)16-9-7(11)5-6(10)8(12)13-9/h5H,3-4H2,1-2H3",SBPBAQFWLVIOKP-UHFFFAOYSA-N,CCO[P](=S)(OCC)Oc1nc(Cl)c(Cl)cc1Cl,-5.4956,0.1117808967976588,3,G5,350.591,4.718100000000002,77.43200000000002,18.0,5.0,0.0,9.0,6.0,102.0,1.0,0.0,0.0,1.0,40.58,125.74118203040852,3.006125183376143,464.6162368766505,Low,False
B-1961,"dl-valine, n-acetyl-","InChI=1S/C7H13NO3/c1-4(2)6(7(10)11)8-5(3)9/h4,6H,1-3H3,(H,8,9)(H,10,11)",IHYJTAOFMMMOPX-UHFFFAOYSA-N,CC(C)C(NC(C)=O)C(O)=O,-0.6325,0.13595,2,G3,159.18499999999997,0.2316999999999998,40.0785,11.0,2.0,2.0,4.0,3.0,64.0,0.0,0.0,0.0,0.0,66.4,65.59604385010077,4.11529460833615,165.0686213592998,High,True
B-1967,"4,4-dimethyl-1-pentanol","InChI=1S/C7H16O/c1-7(2,3)5-4-6-8/h8H,4-6H2,1-3H3",OWCNPTHAWPMOJU-UHFFFAOYSA-N,CC(C)(C)CCCO,-1.5402,0.0053999999999999,2,G3,116.204,1.805,35.77479999999999,8.0,1.0,1.0,1.0,2.0,50.0,0.0,0.0,0.0,0.0,20.23,51.723137466405205,3.111766194388426,51.897390567231454,High,True
B-1980,"2,3-dichloronitrobenzene",InChI=1S/C6H3Cl2NO2/c7-4-2-1-3-5(6(4)8)9(10)11/h1-3H,CMVQZRLQEOAYSW-UHFFFAOYSA-N,[O-][N+](=O)c1cccc(Cl)c1Cl,-3.4881,0.0147864859000002,2,G3,192.001,2.901600000000001,43.11640000000001,11.0,2.0,0.0,5.0,1.0,58.0,1.0,0.0,0.0,1.0,43.14,72.6909112957601,3.2735808215375437,300.6337992264624,High,True
B-2012,reposal,"InChI=1S/C14H18N2O3/c1-2-14(11(17)15-13(19)16-12(14)18)10-6-8-3-4-9(5-8)7-10/h6,8-9H,2-5,7H2,1H3,(H2,15,16,17,18,19)",MKELYWOVSPVORM-UHFFFAOYSA-N,CCC1(C(=O)NC(=O)NC1=O)C2=CC3CCC(C3)C2,-2.7696,0.063687012455881,3,G5,262.309,1.4952,67.93640000000002,19.0,3.0,2.0,5.0,2.0,102.0,0.0,2.0,3.0,3.0,75.27000000000001,111.36069268956088,2.008160336598171,474.91954501412886,High,True
B-2023,7-ethylbenz(a)anthracene,"InChI=1S/C20H16/c1-2-16-18-10-6-4-8-15(18)13-20-17-9-5-3-7-14(17)11-12-19(16)20/h3-13H,2H2,1H3",HBFJJKFTOQAJHO-UHFFFAOYSA-N,CCc1c2ccccc2cc3c1ccc4ccccc34,-6.796,0.0180000000000002,2,G3,256.348,5.708600000000004,88.33800000000006,20.0,0.0,0.0,0.0,1.0,96.0,4.0,0.0,0.0,4.0,0.0,118.2062809434958,2.3005272171141318,932.2283742957518,Low,False
B-2040,fuberidazole,"InChI=1S/C11H8N2O/c1-2-5-9-8(4-1)12-11(13-9)10-6-3-7-14-10/h1-7H,(H,12,13)",UYJUZNLFJAWNEZ-UHFFFAOYSA-N,[nH]1c2ccccc2nc1c3occc3,-3.414,0.0380000000000002,2,G3,184.198,2.8229000000000006,53.79570000000002,14.0,2.0,1.0,3.0,1.0,68.0,3.0,0.0,0.0,3.0,41.82,80.39329952333385,2.2440947752499047,518.4490170061054,High,True
B-2047,"butanedioic acid, chloro-, (r)-","InChI=1S/C4H5ClO4/c5-2(4(8)9)1-3(6)7/h2H,1H2,(H,6,7)(H,8,9)/t2-/m1/s1",QEGKXSHUKXMDRW-UWTATZPHSA-N,OC(=O)C[C@@H](Cl)C(O)=O,-0.7953,0.5,2,G3,152.53300000000002,0.1531000000000001,29.52959999999999,9.0,2.0,2.0,5.0,3.0,52.0,0.0,0.0,0.0,0.0,74.6,56.0488553023806,3.632432151939845,132.52932501298082,High,True
B-2052,2-buten-1-ol (cis),"InChI=1S/C4H8O/c1-2-3-4-5/h2-3,5H,4H2,1H3/b3-2-",WCASXYBKJHWFMY-IHWYPQMZSA-N,C\C=C/CO,0.3621,0.3899500000000001,2,G3,72.107,0.5548,21.899799999999995,5.0,1.0,1.0,1.0,1.0,30.0,0.0,0.0,0.0,0.0,20.23,31.938708091031128,2.622415807990217,30.62919048309069,High,True
B-2074,niflumic acid,"InChI=1S/C13H9F3N2O2/c14-13(15,16)8-3-1-4-9(7-8)18-11-10(12(19)20)5-2-6-17-11/h1-7H,(H,17,18)(H,19,20)",JZFPYUNJRRFVQU-UHFFFAOYSA-N,OC(=O)c1cccnc1Nc2cccc(c2)C(F)(F)F,-4.1718,0.3637548747286955,3,G5,282.221,3.542200000000001,65.923,20.0,3.0,2.0,7.0,3.0,104.0,2.0,0.0,0.0,2.0,62.22,111.44025377992726,2.337930511639871,641.5085495074974,Medium,False
B-2082,n-nitrosomethylvinylamine,"InChI=1S/C3H6N2O/c1-3-5(2)4-6/h3H,1H2,2H3",AWZVYNHQGTZJIH-UHFFFAOYSA-N,CN(C=C)N=O,-0.4579,0.4604499999999999,2,G3,86.094,0.7431,23.754999999999992,6.0,2.0,0.0,3.0,2.0,34.0,0.0,0.0,0.0,0.0,32.67,36.20423389910734,3.206906886091862,53.81353752812509,High,True
B-2100,"propanoic acid, 2,2'-dithiobis-","InChI=1S/C6H10O4S2/c7-5(8)1-3-11-12-4-2-6(9)10/h1-4H2,(H,7,8)(H,9,10)",YCLSOMLVSHPPFV-UHFFFAOYSA-N,OC(=O)CCSSCCC(O)=O,-0.9301,0.36785,2,G3,210.276,1.3172,49.42160000000002,12.0,4.0,2.0,6.0,7.0,70.0,0.0,0.0,0.0,0.0,74.6,78.1216554413723,3.0073056362946597,141.6270750562502,High,True
B-2103,4-methyl-1-penten-3-ol,"InChI=1S/C6H12O/c1-4-6(7)5(2)3/h4-7H,1H2,2-3H3",SZKVYEHTIWILMA-UHFFFAOYSA-N,CC(C)C(O)C=C,-0.515,0.0075,2,G3,100.161,1.1893,31.041799999999984,7.0,1.0,1.0,1.0,2.0,42.0,0.0,0.0,0.0,0.0,20.23,44.668592319824334,3.329976597974793,57.20035947603792,High,True
B-2104,2-hexene-4-ol,"InChI=1S/C6H12O/c1-3-5-6(7)4-2/h3,5-7H,4H2,1-2H3/b5-3+",KWUXUOPPQQMMIL-HWKANZROSA-N,CCC(O)\C=C\C,-0.4198,0.0098999999999999,2,G3,100.161,1.3334,31.111799999999985,7.0,1.0,1.0,1.0,2.0,42.0,0.0,0.0,0.0,0.0,20.23,44.66859231982434,3.159487600385118,57.20035947603792,High,True
B-2170,3-methyl-3-heptanol,"InChI=1S/C8H18O/c1-4-6-7-8(3,9)5-2/h9H,4-7H2,1-3H3",PQOSNJHBSNZITJ-UHFFFAOYSA-N,CCCCC(C)(O)CC,-1.7356,0.0664,2,G3,130.23099999999997,2.3376,40.439800000000005,9.0,1.0,1.0,1.0,4.0,56.0,0.0,0.0,0.0,0.0,20.23,58.08807958080181,3.330074215693167,66.96788691072805,High,True
B-2172,chlorpyrifos methyl,"InChI=1S/C7H7Cl3NO3PS/c1-12-15(16,13-2)14-7-5(9)3-4(8)6(10)11-7/h3H,1-2H3",HRBKVYFZANMGRE-UHFFFAOYSA-N,CO[P](=S)(OC)Oc1nc(Cl)c(Cl)cc1Cl,-4.831,0.0400860186210713,3,G5,322.53700000000003,3.9379000000000017,68.19800000000002,16.0,5.0,0.0,9.0,4.0,90.0,1.0,0.0,0.0,1.0,40.58,113.01129780161531,3.0637668536422646,437.130381956355,Low,False
B-2191,"isopropyl-4,4'-dichlorobenzilate","InChI=1S/C17H16Cl2O3/c1-11(2)22-16(20)17(21,12-3-7-14(18)8-4-12)13-5-9-15(19)10-6-13/h3-11,21H,1-2H3",AXGUBXVWZBFQGA-UHFFFAOYSA-N,CC(C)OC(=O)C(O)(c1ccc(Cl)cc1)c2ccc(Cl)cc2,-5.3544,0.4121999999999999,2,G3,339.2180000000001,4.180900000000003,87.13080000000002,22.0,3.0,1.0,5.0,4.0,116.0,2.0,0.0,0.0,2.0,46.53,138.989041433054,2.547618683970087,603.1091973394051,Low,False
B-2224,"d-glucitol, 1-deoxy-1-(methylamino)-","InChI=1S/C7H17NO5/c1-8-2-4(10)6(12)7(13)5(11)3-9/h4-13H,2-3H2,1H3",MBBZMMPHUWSWHV-UHFFFAOYSA-N,CNCC(O)C(O)C(O)C(O)CO,0.4084,0.15054340745,2,G3,195.215,-3.3582999999999994,45.03970000000002,13.0,6.0,6.0,6.0,6.0,80.0,0.0,0.0,0.0,0.0,113.18,76.44993465879729,3.991684655394681,134.05130927524974,High,True
B-2273,glutamic acid,"InChI=1S/C5H9NO4/c6-3(5(9)10)1-2-4(7)8/h3H,1-2,6H2,(H,7,8)(H,9,10)",WHUUTDBJXJRKMK-UHFFFAOYSA-N,NC(CCC(O)=O)C(O)=O,-0.9916,0.1585525333991885,4,G5,147.13,-0.7369000000000001,32.480999999999995,10.0,3.0,3.0,5.0,4.0,58.0,0.0,0.0,0.0,0.0,100.62,57.450421886908245,3.4907296603908136,144.58337707694835,High,True
B-2319,"2,3-dichlorobutane","InChI=1S/C4H8Cl2/c1-3(5)4(2)6/h3-4H,1-2H3",RMISVOPUIFJTEO-UHFFFAOYSA-N,CC(Cl)C(C)Cl,-2.3541,0.1729500000000001,2,G3,127.014,2.2410000000000005,30.62999999999999,6.0,0.0,0.0,2.0,1.0,38.0,0.0,0.0,0.0,0.0,0.0,48.440609824782726,2.993497243478473,26.52932501298081,High,True
B-2325,"dl-norleucine, n-acetyl-","InChI=1S/C8H15NO3/c1-3-4-5-7(8(11)12)9-6(2)10/h7H,3-5H2,1-2H3,(H,9,10)(H,11,12)",JDMCEGLQFSOMQH-UHFFFAOYSA-N,CCCCC(NC(C)=O)C(O)=O,-0.6823,0.169,2,G3,173.212,0.7659,44.76550000000001,12.0,2.0,2.0,4.0,5.0,70.0,0.0,0.0,0.0,0.0,66.4,71.9609859644974,3.86542455318872,167.68590801734663,High,True
B-2335,chlorine,InChI=1S/Cl2/c1-2,KZBUYRJDOAKODT-UHFFFAOYSA-N,ClCl,-1.0513,0.041342722474506,3,G5,70.906,1.379,11.706,2.0,0.0,0.0,2.0,0.0,14.0,0.0,0.0,0.0,0.0,0.0,22.57062952123243,1.0,0.0,High,True
B-2337,mevinphos,"InChI=1S/C7H13O6P/c1-6(5-7(8)10-2)13-14(9,11-3)12-4/h5H,1-4H3/b6-5+",GEPDYQSQVLXLEU-AATRIKPKSA-N,COC(=O)\C=C(/C)O[P](=O)(OC)OC,0.4276,0.11095,2,G3,224.149,1.4807,48.48250000000003,14.0,6.0,0.0,7.0,5.0,82.0,0.0,0.0,0.0,0.0,71.06,82.40461437457131,4.44286476234683,263.35358508530214,High,True
B-2366,nitrothal-isopropyl,"InChI=1S/C14H17NO6/c1-8(2)20-13(16)10-5-11(14(17)21-9(3)4)7-12(6-10)15(18)19/h5-9H,1-4H3",VJAWBEFMCIINFU-UHFFFAOYSA-N,CC(C)OC(=O)c1cc(cc(c1)[N+]([O-])=O)C(=O)OC(C)C,-5.0389,0.42055,2,G3,295.291,2.725200000000001,74.19940000000003,21.0,6.0,0.0,7.0,5.0,114.0,1.0,0.0,0.0,1.0,95.74,121.5540504162709,3.2022208266076486,524.3327019069317,Low,False
B-2370,methylcyclopentadienyl manganese,"InChI=1S/C6H7.3CO.Mn/c1-6-4-2-3-5-6;3*1-2;/h2-5H,1H3;;;;/q-1;;;;",IYSGJCJSRBFZSZ-UHFFFAOYSA-N,[Mn].C[c-]1cccc1.[C-]#[O+].[C-]#[O+].[C-]#[O+],-3.8762,0.2312178762500001,2,G3,218.08999999999995,1.59889,38.560500000000005,13.0,0.0,0.0,4.0,0.0,69.0,1.0,0.0,0.0,1.0,59.7,88.13513969668425,-5.0844155509824586e-08,194.2441778322086,Medium,False
B-2390,"1-butanamine, n-ethyl-","InChI=1S/C6H15N/c1-3-5-6-7-4-2/h7H,3-6H2,1-2H3",QHCCDDQKNUYGNC-UHFFFAOYSA-N,CCCCNCC,-0.4405,0.0072110591499999,2,G3,101.19299999999998,1.396,33.45169999999999,7.0,1.0,1.0,1.0,4.0,44.0,0.0,0.0,0.0,0.0,12.03,46.11382378342063,2.447472887876344,23.36099039894992,High,True
B-2406,"2-propanol, 1-chloro-, phosphate (3:1)","InChI=1S/C9H18Cl3O4P/c1-7(4-10)14-17(13,15-8(2)5-11)16-9(3)6-12/h7-9H,4-6H2,1-3H3",KVMPUXDNESXNOH-UHFFFAOYSA-N,CC(CCl)O[P](=O)(OC(C)CCl)OC(C)CCl,-2.4361,0.0721392147024194,3,G5,327.572,4.026200000000004,71.40750000000004,17.0,4.0,0.0,8.0,9.0,104.0,0.0,0.0,0.0,0.0,44.760000000000005,117.45883298664312,4.616720085277338,216.35636525754,High,True
B-2456,"n,n-diethyl-2-(1-naphthalenyloxy)propanamide","InChI=1S/C17H21NO2/c1-4-18(5-2)17(19)13(3)20-16-12-8-10-14-9-6-7-11-15(14)16/h6-13H,4-5H2,1-3H3",WXZVAROIGSFCFJ-UHFFFAOYSA-N,CCN(CC)C(=O)C(C)Oc1cccc2ccccc12,-3.5702,0.0149000000000001,2,G3,271.36,3.475500000000002,81.96600000000005,20.0,2.0,0.0,3.0,5.0,106.0,2.0,0.0,0.0,2.0,29.540000000000003,119.70256345176249,2.2158696374530527,585.0646273052466,High,True
B-2495,"pteridine, 2-(methylthio)-","InChI=1S/C7H6N4S/c1-12-7-10-4-5-6(11-7)9-3-2-8-5/h2-4H,1H3",LNTLWEUAGAFRJR-UHFFFAOYSA-N,CSc1ncc2nccnc2n1,-1.7561,0.3019499999999999,2,G3,178.22,1.1416999999999995,46.90900000000002,12.0,5.0,0.0,5.0,1.0,60.0,2.0,0.0,0.0,2.0,51.56,73.47971171478005,2.673996462761564,403.2834383297276,High,True
B-2512,metolazone,"InChI=1S/C16H16ClN3O3S/c1-9-5-3-4-6-14(9)20-10(2)19-13-8-12(17)15(24(18,22)23)7-11(13)16(20)21/h3-8,10,19H,1-2H3,(H2,18,22,23)",AQCHWTWZEMGIFD-UHFFFAOYSA-N,CC1Nc2cc(Cl)c(cc2C(=O)N1c3ccccc3C)[S](N)(=O)=O,-3.783,0.0364999999999999,2,G3,365.8420000000001,2.7141199999999994,93.89840000000002,24.0,4.0,2.0,8.0,2.0,126.0,2.0,0.0,1.0,3.0,92.5,144.8175853997829,2.167413797290446,943.5789765253188,Medium,False
B-2539,albuterol,"InChI=1S/C13H21NO3/c1-13(2,3)14-7-12(17)9-4-5-11(16)10(6-9)8-15/h4-6,12,14-17H,7-8H2,1-3H3",NDAUXUAQIAJITI-UHFFFAOYSA-N,CC(C)(C)NCC(O)c1ccc(O)c(CO)c1,-1.2298,0.3899,2,G3,239.315,1.3059999999999998,66.74510000000004,17.0,4.0,4.0,4.0,4.0,96.0,1.0,0.0,0.0,1.0,72.72,101.9185613604693,2.7202058661391737,371.41759115181975,High,True
B-2580,"3-octanol, (.+-.)-","InChI=1S/C8H18O/c1-3-5-6-7-8(9)4-2/h8-9H,3-7H2,1-2H3",NMRPBPVERJPACX-UHFFFAOYSA-N,CCCCCC(O)CC,-2.0171,0.161844789877337,4,G5,130.23099999999997,2.3376,40.439800000000005,9.0,1.0,1.0,1.0,5.0,56.0,0.0,0.0,0.0,0.0,20.23,58.08807958080181,2.8766225950797444,52.52932501298081,High,True
B-2612,biopterin,"InChI=1S/C9H11N5O3/c1-3(15)6(16)4-2-11-7-5(12-4)8(17)14-9(10)13-7/h2-3,6,15-16H,1H3,(H3,10,11,13,14,17)",LHQIJBMDNUYRAM-UHFFFAOYSA-N,CC(O)C(O)c1cnc2NC(=NC(=O)c2n1)N,-2.5301,0.28495,2,G3,237.219,-1.2905,59.00670000000001,17.0,7.0,4.0,8.0,2.0,90.0,2.0,0.0,0.0,2.0,138.01,95.17636621965654,2.619469435147292,609.0930819850536,High,True
B-2619,bendiocarb,"InChI=1S/C11H13NO4/c1-11(2)15-8-6-4-5-7(9(8)16-11)14-10(13)12-3/h4-6H,1-3H3,(H,12,13)",XEGGRYVFLWGFHI-UHFFFAOYSA-N,CNC(=O)Oc1cccc2OC(C)(C)Oc12,-2.9338,0.4065999999999998,2,G3,223.22799999999995,1.9121,56.86070000000003,16.0,4.0,1.0,5.0,1.0,86.0,1.0,0.0,1.0,2.0,56.790000000000006,93.3023025101232,2.29808275403828,427.99278111223833,High,True
B-2642,triazophos,"InChI=1S/C12H16N3O3PS/c1-3-16-19(20,17-4-2)18-12-13-10-15(14-12)11-8-6-5-7-9-11/h5-10H,3-4H2,1-2H3",AMFGTOFWMRQMEM-UHFFFAOYSA-N,CCO[P](=S)(OCC)Oc1ncn(n1)c2ccccc2,-3.9049,0.0985500000000001,2,G3,313.319,2.9436000000000018,79.52400000000003,20.0,7.0,0.0,8.0,7.0,108.0,2.0,0.0,0.0,2.0,58.4,122.49571101278842,2.145092887186004,580.6433002445386,Medium,False
B-2649,"cyclopentaneacetic acid, 3-oxo-2-pentyl-, methyl","InChI=1S/C13H22O3/c1-3-4-5-6-11-10(7-8-12(11)14)9-13(15)16-2/h10-11H,3-9H2,1-2H3",KVWWIYGFBYDJQC-UHFFFAOYSA-N,CCCCCC1C(CCC1=O)CC(=O)OC,-2.9076,0.1558983168999999,2,G3,226.31599999999997,2.725100000000001,61.996000000000045,16.0,3.0,0.0,3.0,6.0,92.0,0.0,1.0,1.0,1.0,43.370000000000005,97.54931467665402,2.42257678792301,247.5622615053392,High,True
B-2664,thiazafluron,"InChI=1S/C6H7F3N4OS/c1-10-4(14)13(2)5-12-11-3(15-5)6(7,8)9/h1-2H3,(H,10,14)",BBJPZPLAZVZTGR-UHFFFAOYSA-N,CNC(=O)N(C)c1sc(nn1)C(F)(F)F,-2.0584,0.0391999999999999,2,G3,240.21,1.3325,47.7697,15.0,4.0,1.0,9.0,1.0,84.0,1.0,0.0,0.0,1.0,58.120000000000005,86.90710854042652,2.894631590511528,363.50413445942536,High,True
B-2692,norflurazon,"InChI=1S/C12H9ClF3N3O/c1-17-9-6-18-19(11(20)10(9)13)8-4-2-3-7(5-8)12(14,15)16/h2-6,17H,1H3",NVGOPFQZYCNLDU-UHFFFAOYSA-N,CNC1=C(Cl)C(=O)N(N=C1)c2cccc(c2)C(F)(F)F,-3.9548,0.0653657062652547,3,G5,303.671,2.946400000000001,69.3927,20.0,4.0,1.0,8.0,2.0,106.0,2.0,0.0,0.0,2.0,46.92,116.34735929055948,2.584858591083336,697.0773947833336,Medium,False
B-2705,bioresmethrin,"InChI=1S/C22H26O3/c1-15(2)10-19-20(22(19,3)4)21(23)25-14-17-12-18(24-13-17)11-16-8-6-5-7-9-16/h5-10,12-13,19-20H,11,14H2,1-4H3",VEMKTZHHVJILDY-UHFFFAOYSA-N,CC(C)=CC1C(C(=O)OCc2coc(Cc3ccccc3)c2)C1(C)C,-6.0524,0.4492500000000001,2,G3,338.44700000000006,5.1520000000000055,97.94400000000007,25.0,3.0,0.0,3.0,6.0,132.0,2.0,1.0,1.0,3.0,39.44,149.2417651062343,1.5422099361914814,763.57983714686,Low,False
B-2713,atenolol,"InChI=1S/C14H22N2O3/c1-10(2)16-8-12(17)9-19-13-5-3-11(4-6-13)7-14(15)18/h3-6,10,12,16-17H,7-9H2,1-2H3,(H2,15,18)",METKIMKYRPQLGS-UHFFFAOYSA-N,CC(C)NCC(O)COc1ccc(CC(N)=O)cc1,-1.3016,0.2758,2,G3,266.34099999999995,0.4521,73.98090000000003,19.0,4.0,3.0,5.0,8.0,106.0,1.0,0.0,0.0,1.0,84.57999999999998,113.30999399703728,2.346203475304779,390.18247960279086,High,True
B-2746,3-methyl-2-heptanol,"InChI=1S/C8H18O/c1-4-5-6-7(2)8(3)9/h7-9H,4-6H2,1-3H3",SZERMVMTUUAYML-UHFFFAOYSA-N,CCCCC(C)C(C)O,-2.0578,0.1688999999999999,2,G3,130.231,2.1935000000000007,40.369800000000005,9.0,1.0,1.0,1.0,4.0,56.0,0.0,0.0,0.0,0.0,20.23,58.08807958080181,3.1552800835051924,59.58797503894244,High,True
B-2770,"3,3',5,5'-tetrachlorobiphenyl",InChI=1S/C12H6Cl4/c13-9-1-7(2-10(14)5-9)8-3-11(15)6-12(16)4-8/h1-6H,UTMWFJSRHLYRPY-UHFFFAOYSA-N,Clc1cc(Cl)cc(c1)c2cc(Cl)cc(Cl)c2,-8.3748,0.0825999999999993,2,G3,291.992,5.967200000000002,71.918,16.0,0.0,0.0,4.0,1.0,82.0,2.0,0.0,0.0,2.0,0.0,113.70156223308769,2.5749093159100207,444.5371240740592,Low,False
B-2775,isopropalin,"InChI=1S/C15H23N3O4/c1-5-7-16(8-6-2)15-13(17(19)20)9-12(11(3)4)10-14(15)18(21)22/h9-11H,5-8H2,1-4H3",NEKOXWSIMFDGMA-UHFFFAOYSA-N,CCCN(CCC)c1c(cc(cc1[N+]([O-])=O)C(C)C)[N+]([O-])=O,-6.4491,0.0204500000000003,2,G3,309.36600000000004,4.252800000000004,86.63480000000003,22.0,5.0,0.0,7.0,8.0,122.0,1.0,0.0,0.0,1.0,89.51999999999998,129.78166726426937,3.6210484465888126,516.7136957630747,Low,False
B-2816,rovral (iprodione),"InChI=1S/C13H13Cl2N3O3/c1-7(2)16-12(20)17-6-11(19)18(13(17)21)10-4-8(14)3-9(15)5-10/h3-5,7H,6H2,1-2H3,(H,16,20)",ONUFESLQCSAYKA-UHFFFAOYSA-N,CC(C)NC(=O)N1CC(=O)N(C1=O)c2cc(Cl)cc(Cl)c2,-4.3757,0.01715,2,G3,330.17100000000005,2.880000000000001,79.71770000000004,21.0,3.0,1.0,8.0,2.0,112.0,1.0,1.0,1.0,2.0,69.72,131.1407950446534,2.279510120389649,598.4290902164757,Medium,False
B-2832,heptachlorodibenzo-p-dioxin,InChI=1S/C12HCl7O2/c13-2-1-3-10(7(17)4(2)14)21-12-9(19)6(16)5(15)8(18)11(12)20-3/h1H,WCLNVRQZUKYVAI-UHFFFAOYSA-N,Clc1cc2Oc3c(Cl)c(Cl)c(Cl)c(Cl)c3Oc2c(Cl)c1Cl,-11.4795,0.1645308144053537,3,G5,425.3090000000002,8.1584,88.102,21.0,2.0,0.0,9.0,0.0,110.0,2.0,0.0,1.0,3.0,18.46,153.8326202192172,2.271270332623313,788.3961265209693,Low,False
B-2842,"2,2',3,4',5',6-pcb",InChI=1S/C12H4Cl6/c13-6-1-2-7(14)12(18)11(6)5-3-9(16)10(17)4-8(5)15/h1-4H,LKHLFUVHHXCNJH-UHFFFAOYSA-N,Clc1ccc(Cl)c(c1Cl)c2cc(Cl)c(Cl)cc2Cl,-7.93,0.3600000000000003,2,G3,360.88200000000006,7.274000000000001,81.938,18.0,0.0,0.0,6.0,1.0,94.0,2.0,0.0,0.0,2.0,0.0,134.308094686851,2.770754249368492,620.4500798683472,Low,False
B-2844,"2,3,3',4,4',5-hexachlorobiphenyl",InChI=1S/C12H4Cl6/c13-7-2-1-5(3-8(7)14)6-4-9(15)11(17)12(18)10(6)16/h1-4H,LCXMEXLGMKFLQO-UHFFFAOYSA-N,Clc1ccc(cc1Cl)c2cc(Cl)c(Cl)c(Cl)c2Cl,-7.8306,0.3275133110102378,3,G5,360.88200000000006,7.274,81.938,18.0,0.0,0.0,6.0,1.0,94.0,2.0,0.0,0.0,2.0,0.0,134.308094686851,2.6749554502007737,620.4500798683472,Low,False
B-2875,pendimethalin,"InChI=1S/C13H19N3O4/c1-5-10(6-2)14-12-11(15(17)18)7-8(3)9(4)13(12)16(19)20/h7,10,14H,5-6H2,1-4H3",CHIFOSRWCNZCFN-UHFFFAOYSA-N,CCC(CC)Nc1c(cc(C)c(C)c1[N+]([O-])=O)[N+]([O-])=O,-5.9721,0.0189499999999998,2,G3,281.312,3.720340000000003,77.21750000000002,20.0,5.0,1.0,7.0,6.0,110.0,1.0,0.0,0.0,1.0,98.31,116.84181154888084,3.5394583935570507,538.9080729934254,Low,False