ID,Name,InChI,InChIKey,SMILES,Solubility,SD,Ocurrences,Group,MolWt,MolLogP,MolMR,HeavyAtomCount,NumHAcceptors,NumHDonors,NumHeteroatoms,NumRotatableBonds,NumValenceElectrons,NumAromaticRings,NumSaturatedRings,NumAliphaticRings,RingCount,TPSA,LabuteASA,BalabanJ,BertzCT,bin,is_sol
A-3563,calcium hydrogen borate,InChI=1S/2BO3.3Ca/c2*2-1(3)4;;;/q2*-3;3*+2,VLCLHFYFMCKBRP-UHFFFAOYSA-N,[Ca++].[Ca++].[Ca++].[O-]B([O-])[O-].[O-]B([O-])[O-],-0.6843417048,0.0538698919622808,3,G5,237.852,-9.038,28.77,11.0,6.0,0.0,11.0,0.0,48.0,0.0,0.0,0.0,0.0,138.36,154.34786078756062,-1.7142857044897958e-08,31.298860302846805,High,True
A-3564,hexapotassium dihydrogen borate hydrogen borate borate,InChI=1S/BH3O3.K/c2-1(3)4;/h2-4H;,AENYAMPVQFAKHY-UHFFFAOYSA-N,[K].OB(O)O,-0.3120594734,0.0538698919622808,3,G5,100.93099999999998,-2.4326,18.1644,5.0,3.0,3.0,5.0,0.0,25.0,0.0,0.0,0.0,0.0,60.69,72.60708197625848,0.0,11.609640474436814,High,True
A-3569,trisodium 2-({2-[bis(carboxylatomethyl)amino]ethyl}(2-hydroxyethyl)amino)acetate,"InChI=1S/C10H18N2O7.3Na/c13-4-3-11(5-8(14)15)1-2-12(6-9(16)17)7-10(18)19;;;/h13H,1-7H2,(H,14,15)(H,16,17)(H,18,19);;;/q;3*+1/p-3",WHNXAQZPEBNFBC-UHFFFAOYSA-K,[Na+].[Na+].[Na+].OCCN(CCN(CC([O-])=O)CC([O-])=O)CC([O-])=O,0.1444215392,0.0088643834999999,2,G3,344.20700000000005,-15.155599999999998,54.98680000000003,22.0,9.0,1.0,12.0,11.0,110.0,0.0,0.0,0.0,0.0,147.1,194.44509757485696,-5.399998610750369e-07,317.6420139485665,High,True
A-3578,zinc bis(2-hydroxypropanoate),"InChI=1S/2C3H6O3.Zn/c2*1-2(4)3(5)6;/h2*2,4H,1H3,(H,5,6);/q;;+2/p-2",CANRESZKMUPMAE-UHFFFAOYSA-L,[Zn++].CC(O)C([O-])=O.CC(O)C([O-])=O,-0.7035054304999999,0.23014728475,2,G3,243.53,-3.7682999999999978,33.375599999999984,13.0,6.0,2.0,7.0,2.0,72.0,0.0,0.0,0.0,0.0,120.72,87.95310000477826,-1.4285714124489798e-07,137.2034663791036,High,True
A-3582,3-methylbutanoic acid,"InChI=1S/C5H10O2/c1-4(2)3-5(6)7/h4H,3H2,1-2H3,(H,6,7)",GWYFCOCPABKNJV-UHFFFAOYSA-N,CC(C)CC(O)=O,-0.3279248515,0.03583757425,2,G3,102.13299999999998,1.1171,27.090799999999987,7.0,1.0,1.0,2.0,2.0,42.0,0.0,0.0,0.0,0.0,37.3,43.15477533765576,3.126006652390634,66.48040587771368,High,True
A-3599,2-[(2-hydroxyethyl)(phenyl)amino]ethan-1-ol,"InChI=1S/C10H15NO2/c12-8-6-11(7-9-13)10-4-2-1-3-5-10/h1-5,12-13H,6-9H2",OJPDDQSCZGTACX-UHFFFAOYSA-N,OCCN(CCO)c1ccccc1,-0.5833809314,0.0760737417699219,3,G5,181.235,0.4775999999999998,52.82660000000004,13.0,3.0,2.0,3.0,5.0,72.0,1.0,0.0,0.0,1.0,43.7,78.23947275167879,2.6389166230335177,219.62617188863905,High,True
A-3608,potassium nonafluorobutane-1-sulfonate,"InChI=1S/C4HF9O3S.K/c5-1(6,3(9,10)11)2(7,8)4(12,13)17(14,15)16;/h(H,14,15,16);/q;+1/p-1",LVTHXRLARFLXNR-UHFFFAOYSA-M,[K+].[O-][S](=O)(=O)C(F)(F)C(F)(F)C(F)(F)C(F)(F)F,-0.8645162178,0.0317450457930318,3,G5,338.188,-1.0387,30.593200000000007,18.0,3.0,0.0,14.0,3.0,104.0,0.0,0.0,0.0,0.0,57.2,135.87509670275867,0.0,398.52603557774574,High,True
A-3615,"benzene-1,2-diol","InChI=1S/C6H6O2/c7-5-3-1-2-4-6(5)8/h1-4,7-8H",YCIMNLLNPGFGHC-UHFFFAOYSA-N,Oc1ccccc1O,0.6123418909,0.05611815265,2,G3,110.11199999999998,1.0978,29.771599999999992,8.0,2.0,2.0,2.0,0.0,42.0,1.0,0.0,0.0,1.0,40.46,47.01987062388899,3.134861511345448,162.63833891467198,High,True
A-3616,"N,N-diethylhydroxylamine","InChI=1S/C4H11NO/c1-3-5(6)4-2/h6H,3-4H2,1-2H3",FVCOIAYSJZGECG-UHFFFAOYSA-N,CCN(O)CC,0.7036319098,0.05587066045,2,G3,89.138,0.7174,24.707499999999992,6.0,2.0,1.0,2.0,2.0,38.0,0.0,0.0,0.0,0.0,23.47,38.34218329289674,2.7541847860376616,26.72905595320056,High,True
A-3618,lithium(1+) ion acetate,"InChI=1S/C2H4O2.Li/c1-2(3)4;/h1H3,(H,3,4);/q;+1/p-1",XIXADJRWDQXREU-UHFFFAOYSA-M,[Li+].CC([O-])=O,0.8337672926999999,0.1248521054734213,5,G5,65.985,-4.2398,10.681,5.0,2.0,0.0,3.0,0.0,24.0,0.0,0.0,0.0,0.0,40.13,42.357514520398354,0.0,30.629190483090685,High,True
A-3641,zinc(2+) ion dichloride,InChI=1S/2ClH.Zn/h2*1H;/q;;+2/p-2,JIAARYAFYJHUJI-UHFFFAOYSA-L,[Cl-].[Cl-].[Zn++],0.5010006364,0.1472229066499999,2,G3,136.296,-5.9945,0.0,3.0,0.0,0.0,3.0,0.0,16.0,0.0,0.0,0.0,0.0,0.0,44.5579923075674,-0.0,2.754887502163468,High,True
A-3653,(3-{[3-(dimethylamino)propyl]amino}propyl)dimethylamine,"InChI=1S/C10H25N3/c1-12(2)9-5-7-11-8-6-10-13(3)4/h11H,5-10H2,1-4H3",BXYVQNNEFZOBOZ-UHFFFAOYSA-N,CN(C)CCCNCCCN(C)C,0.3558508036,0.1562768943499999,2,G3,187.331,0.4794000000000011,59.21170000000005,13.0,3.0,1.0,3.0,8.0,80.0,0.0,0.0,0.0,0.0,18.51,83.09325958141379,2.91636218704284,90.34298055646548,High,True
A-3655,"trisodium 2-hydroxypropane-1,2,3-tricarboxylate","InChI=1S/C6H8O7.3Na/c7-3(8)1-6(13,5(11)12)2-4(9)10;;;/h13H,1-2H2,(H,7,8)(H,9,10)(H,11,12);;;/q;3*+1/p-3",HRXKRNGNAMMEHJ-UHFFFAOYSA-K,[Na+].[Na+].[Na+].OC(CC([O-])=O)(CC([O-])=O)C([O-])=O,0.2166530911,0.09786845195,2,G3,258.069,-14.240600000000002,29.204799999999995,16.0,7.0,1.0,10.0,5.0,74.0,0.0,0.0,0.0,0.0,140.62,157.46566177686378,-2.399999741500029e-07,238.5067183824432,High,True
A-3666,sodium hydrogen 2-aminopentanedioate,"InChI=1S/C5H9NO4.Na/c6-3(5(9)10)1-2-4(7)8;/h3H,1-2,6H2,(H,7,8)(H,9,10);/q;+1/p-1",LPUQAYUQRXPFSQ-UHFFFAOYSA-M,[Na+].NC(CCC(O)=O)C([O-])=O,0.3919616292,0.1261180257366533,3,G5,169.112,-5.067599999999998,29.8522,11.0,4.0,2.0,6.0,4.0,58.0,0.0,0.0,0.0,0.0,103.45,85.86382150962022,0.0,149.417843933085,High,True
A-3671,diammonium oxalate,"InChI=1S/C2H2O4.2H3N/c3-1(4)2(5)6;;/h(H,3,4)(H,5,6);2*1H3",VBIXEXWLHSRNKB-UHFFFAOYSA-N,[NH4+].[NH4+].[O-]C(=O)C([O-])=O,-0.4725815013,0.1360561582248192,4,G5,124.096,-2.7614,21.98360000000001,8.0,4.0,2.0,6.0,0.0,50.0,0.0,0.0,0.0,0.0,153.26,45.287205574598936,-1.249999955000002e-07,78.03910001730776,High,True
A-3673,(2S)-2-amino-4-carbamoylbutanoic acid,"InChI=1S/C5H10N2O3/c6-3(5(9)10)1-2-4(7)8/h3H,1-2,6H2,(H2,7,8)(H,9,10)/t3-/m0/s1",ZDXPYRJPNDTMRX-VKHMYHEASA-N,N[C@@H](CCC(N)=O)C(O)=O,-0.5483114193999999,0.0317820318,2,G3,146.14600000000002,-1.3361999999999998,34.03959999999999,10.0,3.0,3.0,5.0,4.0,58.0,0.0,0.0,0.0,0.0,106.41,57.996078831724944,3.4907296603908136,145.8284895747849,High,True
A-3674,(2S)-2-amino-3-methylpentanoic acid,"InChI=1S/C6H13NO2/c1-3-4(2)5(7)6(8)9/h4-5H,3,7H2,1-2H3,(H,8,9)/t4-,5-/m0/s1",AGPKZVBTJJNPAG-WHFBIAKZSA-N,CC[C@H](C)[C@H](N)C(O)=O,-0.5029538568,0.0417091494999999,2,G3,131.17499999999998,0.4443999999999999,35.06619999999998,9.0,2.0,2.0,3.0,3.0,54.0,0.0,0.0,0.0,0.0,63.32,54.85960814906508,3.716136771182721,103.23098268032228,High,True
A-3678,"2,5-dihydrofuran-2,5-dione",InChI=1S/C4H2O3/c5-3-1-2-4(6)7-3/h1-2H,FPYJFEHAWHCUMM-UHFFFAOYSA-N,O=C1OC(=O)C=C1,0.6181158071,0.0057909362999999,2,G3,98.05699999999996,-0.3740000000000001,20.239,7.0,3.0,0.0,3.0,0.0,36.0,0.0,0.0,1.0,1.0,43.370000000000005,39.5752326149003,2.759543614305127,129.013897004163,High,True
A-3683,disodium carbonate,"InChI=1S/CH2O3.2Na/c2-1(3)4;;/h(H2,2,3,4);;/q;2*+1/p-2",CDBYLPFSWZWCQE-UHFFFAOYSA-L,[Na+].[Na+].[O-]C([O-])=O,0.581124668,0.1395112153499999,2,G3,105.988,-8.439,5.396,6.0,3.0,0.0,5.0,0.0,24.0,0.0,0.0,0.0,0.0,63.19,79.31603987768926,-4.4999999250000016e-08,31.77443751081734,High,True
A-3691,(1R)-1-phenylethan-1-amine,"InChI=1S/C8H11N/c1-7(9)8-5-3-2-4-6-8/h2-7H,9H2,1H3",RQEUFEKYXDPUSK-UHFFFAOYSA-N,CC(N)c1ccccc1,-0.4813817083,0.0105946494999999,2,G3,121.18299999999996,1.7063,39.04440000000001,9.0,1.0,1.0,1.0,1.0,48.0,1.0,0.0,0.0,1.0,26.02,55.50117804530289,2.848234050597751,167.1823264341432,High,True
A-3702,"1,3,3-trimethyl-5-oxocyclohexane-1-carbonitrile","InChI=1S/C10H15NO/c1-9(2)4-8(12)5-10(3,6-9)7-11/h4-6H2,1-3H3",JJDFVIDVSCYKDS-UHFFFAOYSA-N,CC1(C)CC(=O)CC(C)(C1)C#N,-1.5404977204,0.0067372696999999,2,G3,165.236,2.2954800000000004,46.35900000000002,12.0,2.0,0.0,2.0,0.0,66.0,0.0,1.0,1.0,1.0,40.86,73.57200068538228,2.8553613866654706,249.05441917228063,High,True
A-3708,octan-1-amine dibutyl sulfanylphosphonate,"InChI=1S/C8H19N.C8H19O3PS/c1-2-3-4-5-6-7-8-9;1-3-5-7-10-12(9,13)11-8-6-4-2/h2-9H2,1H3;3-8H2,1-2H3,(H,9,13)",IVMOXNPAUDFORG-UHFFFAOYSA-N,CCCCCCCCN.CCCCO[P](S)(=O)OCCCC,-1.8796973024,0.0077317132999999,2,G3,355.52500000000015,5.963300000000007,100.74290000000008,22.0,4.0,2.0,6.0,14.0,136.0,0.0,0.0,0.0,0.0,61.55,143.1527867562025,0.0,235.5454175965933,High,True
A-3712,"4-amino-N-tert-butyl-5-oxo-3-(propan-2-yl)-4,5-dihydro-1H-1,2,4-triazole-1-carboxamide","InChI=1S/C10H19N5O2/c1-6(2)7-13-15(9(17)14(7)11)8(16)12-10(3,4)5/h6H,11H2,1-5H3,(H,12,16)",ORFPWVRKFLOQHK-UHFFFAOYSA-N,CC(C)C1=NN(C(=O)NC(C)(C)C)C(=O)N1N,-1.7188473974,0.0088618323233733,3,G5,241.295,0.2382000000000007,64.40910000000002,17.0,6.0,2.0,7.0,1.0,96.0,1.0,0.0,0.0,1.0,94.94,99.5707260601158,3.1237094952308486,477.86618958429005,High,True
A-3716,"4-amino-3,6-dichloropyridine-2-carboxylic acid","InChI=1S/C6H4Cl2N2O2/c7-3-1-2(9)4(8)5(10-3)6(11)12/h1H,(H2,9,10)(H,11,12)",NIXXQNOQHKNPEJ-UHFFFAOYSA-N,Nc1cc(Cl)nc(C(O)=O)c1Cl,-0.0042500518,0.00729099995,2,G3,207.016,1.6688,45.6287,12.0,3.0,2.0,6.0,1.0,64.0,1.0,0.0,0.0,1.0,76.21000000000001,77.91817221785593,3.3738590108748694,340.5651246505103,High,True
A-3723,tributoxyalumane,"InChI=1S/3C4H9O.Al/c3*1-2-3-4-5;/h3*2-4H2,1H3;/q3*-1;+3",MYWQGROTKMBNKN-UHFFFAOYSA-N,[Al+3].CCCC[O-].CCCC[O-].CCCC[O-],-1.7373354758,0.1067085472150716,3,G5,246.3269999999999,0.059600000000002,65.07900000000005,16.0,3.0,0.0,4.0,6.0,96.0,0.0,0.0,0.0,0.0,69.17999999999999,112.02149084182544,-6.545454500826446e-08,53.01955000865387,High,True
A-3725,"2,4-dichlorophenol","InChI=1S/C6H4Cl2O/c7-4-1-2-6(9)5(8)3-4/h1-3,9H",HFZWRUODUSTPEG-UHFFFAOYSA-N,Oc1ccc(Cl)cc1Cl,-1.5589830837,0.0184917830999999,2,G3,163.003,2.699,38.12680000000001,9.0,1.0,1.0,3.0,0.0,48.0,1.0,0.0,0.0,1.0,20.23,62.83216932545633,3.171678030440915,222.29788705001036,High,True
A-3730,tetrasodium 8-[[4-[(4-amino-3-sulphonatophenyl)azo]-6-sulphonatonaphthyl]azo]-5-[[6-(benzoylamino)-1-hydroxy-3-sulphonato-2-naphthyl]azo]naphthalene-2-sulphonate,"InChI=1S/C43H30N8O14S4.4Na/c44-34-13-7-26(20-39(34)68(60,61)62)46-47-37-16-14-35(30-11-8-27(21-32(30)37)66(54,55)56)48-49-38-17-15-36(31-12-9-28(22-33(31)38)67(57,58)59)50-51-41-40(69(63,64)65)19-24-18-25(6-10-29(24)42(41)52)45-43(53)23-4-2-1-3-5-23;;;;/h1-22,50H,44H2,(H,45,53)(H,54,55,56)(H,57,58,59)(H,60,61,62)(H,63,64,65);;;;/q;4*+1/p-4/b47-46?,49-48?,51-41+;;;;",WSKMZXPHHJCCDK-HTWUECFASA-J,[Na+].[Na+].[Na+].[Na+].Nc1ccc(cc1[S]([O-])(=O)=O)N=Nc2ccc(N=Nc3ccc(N\N=C/4C(=O)c5ccc(NC(=O)c6ccccc6)cc5C=C4[S]([O-])(=O)=O)c7ccc(cc37)[S]([O-])(=O)=O)c8ccc(cc28)[S]([O-])(=O)=O,-2.3935953584,0.3340837821499999,2,G3,1098.9510000000002,-5.062900000000014,244.89159999999976,73.0,21.0,3.0,30.0,12.0,350.0,7.0,0.0,1.0,8.0,374.82,503.8422013838928,2.887995836259204e-06,3980.640367115373,High,True
A-3741,heptan-2-one,"InChI=1S/C7H14O/c1-3-4-5-6-7(2)8/h3-6H2,1-2H3",CATSNJVOTSVZJV-UHFFFAOYSA-N,CCCCCC(C)=O,-1.4333383705,0.012272471566661,3,G5,114.188,2.1557000000000004,34.822999999999986,8.0,1.0,0.0,1.0,4.0,48.0,0.0,0.0,0.0,0.0,17.07,51.09042581425296,2.822354554248032,66.78707744334402,High,True
A-3742,2-methylpentanal,"InChI=1S/C6H12O/c1-3-4-6(2)5-7/h5-6H,3-4H2,1-2H3",FTZILAQGHINQQR-UHFFFAOYSA-N,CCCC(C)C=O,-1.3774493615,0.0073616283999999,2,G3,100.161,1.6215,30.13599999999998,7.0,1.0,0.0,1.0,3.0,42.0,0.0,0.0,0.0,0.0,17.07,44.72548369985635,2.9843602328703267,50.14170945007629,High,True
A-3749,N-butylbutan-1-amine,"InChI=1S/C8H19N/c1-3-5-7-9-8-6-4-2/h9H,3-8H2,1-2H3",JQVDAXLFBXTEQA-UHFFFAOYSA-N,CCCCNCCCC,-1.5039654481,0.0386916965789481,3,G5,129.247,2.1762,42.68570000000001,9.0,1.0,1.0,1.0,6.0,56.0,0.0,0.0,0.0,0.0,12.03,58.84370801221385,2.595082706793886,37.83229392178728,High,True
A-3772,Trimethylsulfoxonium iodide,"InChI=1S/C3H9OS.HI/c1-5(2,3)4;/h1-3H3;1H/q+1;/p-1",BPLKQGGAXWRFOE-UHFFFAOYSA-M,[I-].C[S+](C)(C)=O,-0.7568844320999999,0.0473246174999999,2,G3,220.075,-2.6206999999999985,25.82349999999999,6.0,1.0,0.0,3.0,0.0,40.0,0.0,0.0,0.0,0.0,17.07,56.95522523879605,0.0,56.92878689342032,High,True
A-3774,diaminotoluene,"InChI=1S/C7H10N2/c1-5-4-6(8)2-3-7(5)9/h2-4H,8-9H2,1H3",OBCSAIDCZQSFQH-UHFFFAOYSA-N,Cc1cc(N)ccc1N,-0.5071845321,0.0763050816,2,G3,122.171,1.15942,40.0038,9.0,2.0,2.0,2.0,0.0,48.0,1.0,0.0,0.0,1.0,52.04,54.476126627919,3.171678030440916,218.15617759993404,High,True
A-3779,ammonium chloride,InChI=1S/ClH.H3N/h1H;1H3,NLXLAEXVIDQMFP-UHFFFAOYSA-N,[NH4+].[Cl-],0.8422541039,0.0130270779,2,G3,53.492,-2.6198,5.9848,2.0,0.0,1.0,2.0,0.0,16.0,0.0,0.0,0.0,0.0,36.5,19.657321376399747,0.0,2.0,High,True
A-3798,potassium chloride,InChI=1S/ClH.K/h1H;/q;+1/p-1,WCUXLLCKKVVCTQ-UHFFFAOYSA-M,[Cl-].[K+],0.6777748798000001,0.0193036954708763,4,G5,74.551,-5.992,0.0,2.0,0.0,0.0,2.0,0.0,8.0,0.0,0.0,0.0,0.0,0.0,62.44413570781571,0.0,2.0,High,True
A-3807,N-propylpropan-1-amine,"InChI=1S/C6H15N/c1-3-5-7-6-4-2/h7H,3-6H2,1-2H3",WEHWNAOGRSTTBQ-UHFFFAOYSA-N,CCCNCCC,-0.461082427,0.1119412135,2,G3,101.193,1.396,33.45169999999999,7.0,1.0,1.0,1.0,4.0,44.0,0.0,0.0,0.0,0.0,12.03,46.11382378342063,2.447472887876344,23.36099039894992,High,True
A-3808,aniline,"InChI=1S/C6H7N/c7-6-4-2-1-3-5-6/h1-5H,7H2",PAYRUJLWNCNPSJ-UHFFFAOYSA-N,Nc1ccccc1,-0.4250168953,0.0061172282499999,2,G3,93.129,1.2688,30.8544,7.0,1.0,1.0,1.0,0.0,36.0,1.0,0.0,0.0,1.0,26.02,42.77129381650968,3.0214653097240864,134.10736969541455,High,True
A-3847,3-acetyloxolan-2-one,"InChI=1S/C6H8O3/c1-4(7)5-2-3-9-6(5)8/h5H,2-3H2,1H3",OMQHDIHZSDEIFH-UHFFFAOYSA-N,CC(=O)C1CCOC1=O,0.3975093207,0.10205466035,2,G3,128.127,0.1385,29.746999999999986,9.0,3.0,0.0,3.0,1.0,50.0,0.0,1.0,1.0,1.0,43.370000000000005,52.99471987587776,2.597596850254139,150.38196255841365,High,True
A-3858,"2,2,4-trimethylpentane-1,3-diol","InChI=1S/C8H18O2/c1-6(2)7(10)8(3,4)5-9/h6-7,9-10H,5H2,1-4H3",JCTXKRPTIMZBJT-UHFFFAOYSA-N,CC(C)C(O)C(C)(C)CO,-0.6667259261999999,0.1097870369,2,G3,146.23,1.0218,41.7116,10.0,2.0,2.0,2.0,3.0,62.0,0.0,0.0,0.0,0.0,40.46,62.88231333299781,4.034118241181464,97.43071362054202,High,True
A-3869,methyl formate,"InChI=1S/C2H4O2/c1-4-2-3/h2H,1H3",TZIHFWKZFHZASV-UHFFFAOYSA-N,COC=O,0.6985937788,0.0576967093499999,2,G3,60.05200000000001,-0.2108000000000001,13.073,4.0,2.0,0.0,2.0,1.0,24.0,0.0,0.0,0.0,0.0,26.3,24.379260471776803,2.2968352619191386,18.0,High,True
A-3875,2-(2-ethoxyethoxy)-2-methylpropane,"InChI=1S/C8H18O2/c1-5-9-6-7-10-8(2,3)4/h5-7H2,1-4H3",NUNQKTCKURIZQX-UHFFFAOYSA-N,CCOCCOC(C)(C)C,-0.6879152253,0.0455402347,2,G3,146.23,1.838,42.198000000000015,10.0,2.0,0.0,2.0,4.0,62.0,0.0,0.0,0.0,0.0,18.46,63.52093628761955,3.0437584089734577,73.81700155456723,High,True
A-3876,3-methoxybutyl acetate,"InChI=1S/C7H14O3/c1-6(9-3)4-5-10-7(2)8/h6H,4-5H2,1-3H3",QMYGFTJCQFEDST-UHFFFAOYSA-N,COC(C)CCOC(C)=O,-0.6877845281999999,0.4728193796494214,3,G5,146.18599999999998,0.9745,37.721,10.0,3.0,0.0,3.0,4.0,60.0,0.0,0.0,0.0,0.0,35.53,61.31751627326672,3.110465475982731,101.02434166397532,High,True
A-3877,"Sulfuric acid, mono-C12-18-alkyl esters, sodium salts","InChI=1S/C15H32O4S.Na/c1-2-3-4-5-6-7-8-9-10-11-12-13-14-15-19-20(16,17)18;/h2-15H2,1H3,(H,16,17,18);/q;+1/p-1",SMECTXYFLVLAJE-UHFFFAOYSA-M,[Na+].CCCCCCCCCCCCCCCO[S]([O-])(=O)=O,-1.042005529,0.46040937695,2,G3,330.46599999999995,1.5583999999999996,81.34420000000007,21.0,4.0,0.0,6.0,15.0,122.0,0.0,0.0,0.0,0.0,66.43,153.2130253676996,0.0,294.0487426807373,High,True
A-3882,"1,3,5-triazine-2,4,6-triamine phosphate","InChI=1S/C3H6N6.H3O4P/c4-1-7-2(5)9-3(6)8-1;1-5(2,3)4/h(H6,4,5,6,7,8,9);(H3,1,2,3,4)",XFZRQAZGUOTJCS-UHFFFAOYSA-N,Nc1nc(N)nc(N)n1.O[P](O)(O)=O,-1.7594101934,0.0569716761499999,2,G3,224.117,-2.3104,47.3271,14.0,7.0,6.0,11.0,0.0,80.0,1.0,0.0,0.0,1.0,194.48999999999995,78.048162237967,2.917777713588273e-07,292.1874109046766,High,True
A-3893,4-[(4-amino-3-methylcyclohexyl)methyl]-2-methylcyclohexan-1-amine,"InChI=1S/C15H30N2/c1-10-7-12(3-5-14(10)16)9-13-4-6-15(17)11(2)8-13/h10-15H,3-9,16-17H2,1-2H3",IGSBHTZEJMPDSZ-UHFFFAOYSA-N,CC1CC(CCC1N)CC2CCC(N)C(C)C2,-1.8210383613,0.1314349313511943,3,G5,238.419,2.903500000000001,73.57780000000005,17.0,2.0,2.0,2.0,2.0,100.0,0.0,2.0,2.0,2.0,52.04,106.51655971634902,1.7754724185565798,217.07631885586423,High,True
A-3895,"2,5-dimethylphenol","InChI=1S/C8H10O/c1-6-3-4-7(2)8(9)5-6/h3-5,9H,1-2H3",NKTOLZVEWDHZMU-UHFFFAOYSA-N,Cc1ccc(C)c(O)c1,-1.5375827569,0.0234720161499999,2,G3,122.167,2.00904,37.5808,9.0,1.0,1.0,1.0,0.0,48.0,1.0,0.0,0.0,1.0,20.23,54.95552110048619,3.171678030440916,215.80766205433727,High,True
A-3896,"{[(2R,3S,4R,5R)-5-(6-amino-9H-purin-9-yl)-3,4-dihydroxyoxolan-2-yl]methoxy}phosphonic acid","InChI=1S/C10H14N5O7P/c11-8-5-9(13-2-12-8)15(3-14-5)10-7(17)6(16)4(22-10)1-21-23(18,19)20/h2-4,6-7,10,16-17H,1H2,(H2,11,12,13)(H2,18,19,20)",UDMBCSSLTHHNCD-UHFFFAOYSA-N,Nc1ncnc2n(cnc12)C3OC(CO[P](O)(O)=O)C(O)C3O,-1.9953026194,0.2273513096999999,2,G3,347.224,-1.8630000000000004,73.65509999999999,23.0,10.0,5.0,13.0,4.0,126.0,2.0,1.0,1.0,3.0,186.07,128.30354975942075,1.8511475274909783,763.1378284373786,High,True
A-3897,"1,1,2-trichloroethane","InChI=1S/C2H3Cl3/c3-1-2(4)5/h2H,1H2",UBOXGVDOUJQMTN-UHFFFAOYSA-N,ClCC(Cl)Cl,-1.5811040628,0.0506520313999999,2,G3,133.405,2.0289,26.213999999999995,5.0,0.0,0.0,3.0,1.0,32.0,0.0,0.0,0.0,0.0,0.0,46.013991822871176,2.5395388613593908,18.854752972273342,High,True
A-3905,"1,3,5-triazine-2,4,6-triamine","InChI=1S/C3H6N6/c4-1-7-2(5)9-3(6)8-1/h(H6,4,5,6,7,8,9)",JDSHMPZPIAZGSV-UHFFFAOYSA-N,Nc1nc(N)nc(N)n1,-1.5592150485,0.0767395383078985,3,G5,126.12300000000002,-1.3818,33.0642,9.0,6.0,3.0,6.0,0.0,48.0,1.0,0.0,0.0,1.0,116.73,51.11001915337465,3.165670309917317,169.06517765499825,High,True
A-3907,1-nitroguanidine,"InChI=1S/CH4N4O2/c2-1(3)4-5(6)7/h(H4,2,3,4)",IDCPFAYURAQKDZ-UHFFFAOYSA-N,NC(N)=N[N+]([O-])=O,-1.4858424644,0.0839634345981854,4,G5,104.069,-1.5484999999999998,22.80420000000001,7.0,2.0,2.0,6.0,1.0,40.0,0.0,0.0,0.0,0.0,107.54000000000002,38.93746665044988,3.679228031962392,102.25742227201611,High,True
A-3911,1-aminoguanidine; carbonic acid,"InChI=1S/CH6N4.CH2O3/c2-1(3)5-4;2-1(3)4/h4H2,(H4,2,3,5);(H2,2,3,4)",OTXHZHQQWQTQMW-UHFFFAOYSA-N,NN=C(N)N.OC(O)=O,-1.6153792849000002,0.1114413867532311,3,G5,136.111,-1.6441,30.650800000000007,9.0,3.0,5.0,7.0,0.0,54.0,0.0,0.0,0.0,0.0,147.95,50.74514449732442,0.0,102.38037532843026,High,True
A-3919,2-(propan-2-yloxy)propane,"InChI=1S/C6H14O/c1-5(2)7-6(3)4/h5-6H,1-4H3",ZAFNJMIOTHYJRJ-UHFFFAOYSA-N,CC(C)OC(C)C,-1.5165927583,0.2737113244761562,4,G5,102.177,1.8198,31.356999999999974,7.0,1.0,0.0,1.0,2.0,44.0,0.0,0.0,0.0,0.0,9.23,45.677506829319455,2.9532231745612925,33.44467835888275,High,True
A-3921,2-bromopropane,"InChI=1S/C3H7Br/c1-3(2)4/h3H,1-2H3",NAMYKGVDVNBCFQ-UHFFFAOYSA-N,CC(C)Br,-1.598518701,0.0184806076059304,3,G5,122.993,1.7897,24.06299999999999,4.0,0.0,0.0,1.0,0.0,26.0,0.0,0.0,0.0,0.0,0.0,35.33668286226413,2.3237900077244498,8.0,High,True
A-3924,(ethylsulfanyl)ethane,"InChI=1S/C4H10S/c1-3-5-4-2/h3-4H2,1-2H3",LJSQFQKUNVCTIA-UHFFFAOYSA-N,CCSCC,-1.4680248268,0.0640124133999999,2,G3,90.191,1.7594,28.672999999999988,5.0,1.0,0.0,1.0,2.0,32.0,0.0,0.0,0.0,0.0,0.0,37.95718739638461,2.19060968716425,11.119415478763749,High,True
A-3929,1-[2-(2-butoxyethoxy)ethoxy]butane,"InChI=1S/C12H26O3/c1-3-5-7-13-9-11-15-12-10-14-8-6-4-2/h3-12H2,1-2H3",KZVBBTZJMSWGTK-UHFFFAOYSA-N,CCCCOCCOCCOCCCC,-1.862006084,0.1809422743431963,3,G5,218.33699999999996,2.636400000000001,62.27300000000006,15.0,3.0,0.0,3.0,12.0,92.0,0.0,0.0,0.0,0.0,27.69,94.09424997471288,2.8079257388805243,95.04035409497882,High,True
A-3934,4-chloroaniline,"InChI=1S/C6H6ClN/c7-5-1-3-6(8)4-2-5/h1-4H,8H2",QSNSCYSYFYORTR-UHFFFAOYSA-N,Nc1ccc(Cl)cc1,-1.628640918,0.0659723309600253,4,G5,127.574,1.9222,35.86440000000002,8.0,1.0,1.0,2.0,0.0,42.0,1.0,0.0,0.0,1.0,26.02,53.07456004339135,3.0324555320336755,147.38833891467198,High,True
A-3939,chlorodifluoromethane,InChI=1S/CHClF2/c2-1(3)4/h1H,VOPWNXZWBYDODV-UHFFFAOYSA-N,FC(F)Cl,-1.4597341592,0.0173329204,2,G3,86.468,1.4478,11.857,4.0,0.0,0.0,3.0,0.0,26.0,0.0,0.0,0.0,0.0,0.0,27.37358806056369,2.3237900077244498,10.75488750216347,High,True
A-3943,"but-2-yne-1,4-diol","InChI=1S/C4H6O2/c5-3-1-2-4-6/h5-6H,3-4H2",DLDJFQGPPSQZKI-UHFFFAOYSA-N,OCC#CCO,1.5363390032,0.4493883381175167,3,G5,86.08999999999999,-1.0256,21.947599999999994,6.0,2.0,2.0,2.0,0.0,34.0,0.0,0.0,0.0,0.0,40.46,36.42177026727067,2.8986676180251862,59.35260810785708,High,True