ID,Name,InChI,InChIKey,SMILES,Solubility,SD,Ocurrences,Group,MolWt,MolLogP,MolMR,HeavyAtomCount,NumHAcceptors,NumHDonors,NumHeteroatoms,NumRotatableBonds,NumValenceElectrons,NumAromaticRings,NumSaturatedRings,NumAliphaticRings,RingCount,TPSA,LabuteASA,BalabanJ,BertzCT,bin,is_sol
B-4351,phenylmercuric acetate,"InChI=1S/C6H5.C2H4O2.Hg/c1-2-4-6-5-3-1;1-2(3)4;/h1-5H;1H3,(H,3,4);/q;;+1/p-1",XEBWQGVWTUSTLN-UHFFFAOYSA-M,CC(=O)O[Hg]c1ccccc1,-1.8868,0.1695999999999999,2,G3,336.74000000000007,0.8725,37.84200000000001,11.0,2.0,0.0,3.0,2.0,54.0,1.0,0.0,0.0,1.0,26.3,78.6604638419112,2.453018743531937,233.10719092921428,High,True
B-4379,propargite,"InChI=1S/C19H26O4S/c1-5-14-21-24(20)23-18-9-7-6-8-17(18)22-16-12-10-15(11-13-16)19(2,3)4/h1,10-13,17-18H,6-9,14H2,2-4H3",ZYHMJXZULPZUED-UHFFFAOYSA-N,CC(C)(C)c1ccc(OC2CCCCC2O[S](=O)OCC#C)cc1,-5.8457,0.1832623901499999,2,G3,350.4800000000001,3.919200000000004,95.82640000000004,24.0,4.0,0.0,5.0,6.0,132.0,1.0,1.0,1.0,2.0,44.760000000000005,147.30194248919548,1.9762330395093344,582.8697304336721,Low,False
B-4396,"2,4,6-trichloroaniline","InChI=1S/C6H4Cl3N/c7-3-1-4(8)6(10)5(9)2-3/h1-2H,10H2",NATVSFWWYVJTAZ-UHFFFAOYSA-N,Nc1c(Cl)cc(Cl)cc1Cl,-3.6912,0.1385570067269316,4,G5,196.464,3.229,45.88440000000001,10.0,1.0,1.0,4.0,0.0,54.0,1.0,0.0,0.0,1.0,26.02,73.6810924971547,3.310532874722407,236.16499587006643,High,True
B-4400,tropic acid,"InChI=1S/C9H10O3/c10-6-8(9(11)12)7-4-2-1-3-5-7/h1-5,8,10H,6H2,(H,11,12)",JACRWUWPXAESPB-UHFFFAOYSA-N,OCC(C(O)=O)c1ccccc1,-0.9305,0.0055,2,G3,166.176,0.8471000000000002,43.90460000000002,12.0,2.0,2.0,3.0,3.0,64.0,1.0,0.0,0.0,1.0,57.53,70.27621906712257,2.877595790918249,255.7359747745539,High,True
B-4407,halothane,"InChI=1S/C2HBrClF3/c3-1(4)2(5,6)7/h1H",BCQZXOMGPXTTIC-UHFFFAOYSA-N,FC(F)(F)C(Cl)Br,-1.7043,0.14715,2,G3,197.381,2.5085,24.623,7.0,0.0,0.0,5.0,0.0,44.0,0.0,0.0,0.0,0.0,0.0,51.7716131835279,3.5411969650799016,58.44547197387445,High,True
B-4411,4-aminoacetophenone,"InChI=1S/C8H9NO/c1-6(10)7-2-4-8(9)5-3-7/h2-5H,9H2,1H3",GPRYKVSEZCQIHD-UHFFFAOYSA-N,CC(=O)c1ccc(N)cc1,-1.6058,0.1978999999999999,2,G3,135.166,1.4714,40.85890000000001,10.0,2.0,1.0,2.0,1.0,52.0,1.0,0.0,0.0,1.0,43.09,59.662700145346655,3.003400684579818,237.9394333808838,High,True
B-4418,hexamethylmelamine,InChI=1S/C9H18N6/c1-13(2)7-10-8(14(3)4)12-9(11-7)15(5)6/h1-6H3,UUVWYPNAQBNQJQ-UHFFFAOYSA-N,CN(C)c1nc(nc(n1)N(C)C)N(C)C,-3.3638,0.0080999999999999,2,G3,210.285,0.0696000000000001,62.80800000000004,15.0,6.0,0.0,6.0,3.0,84.0,1.0,0.0,0.0,1.0,48.39000000000001,90.55950075932626,3.200818079145856,268.63201166582786,High,True
B-4421,n-phenylthiourea,"InChI=1S/C7H8N2S/c8-7(10)9-6-4-2-1-3-5-6/h1-5H,(H3,8,9,10)",FULZLIGZKMKICU-UHFFFAOYSA-N,NC(=S)Nc1ccccc1,-1.7898,0.0099,2,G3,152.22199999999998,1.3421,46.85010000000001,10.0,1.0,2.0,3.0,1.0,52.0,1.0,0.0,0.0,1.0,38.05,65.0448783617192,2.6742416022951265,220.3075329961489,High,True
B-4424,"1,2,3,4,6,7,8,9-octachlorodibenzo-p-dioxin",InChI=1S/C12Cl8O2/c13-1-2(14)6(18)10-9(5(1)17)21-11-7(19)3(15)4(16)8(20)12(11)22-10,FOIBFBMSLDGNHL-UHFFFAOYSA-N,Clc1c(Cl)c(Cl)c2Oc3c(Cl)c(Cl)c(Cl)c(Cl)c3Oc2c1Cl,-12.0605,0.3647499999999999,2,G3,459.75400000000025,8.8118,93.11199999999998,22.0,2.0,0.0,10.0,0.0,116.0,2.0,0.0,1.0,3.0,18.46,164.1358864460989,2.32088843639644,697.8417983917849,Low,False
B-4428,"1,2,3,4,7,8-hexachlorodibenzo-p-dioxin",InChI=1S/C12H2Cl6O2/c13-3-1-5-6(2-4(3)14)20-12-10(18)8(16)7(15)9(17)11(12)19-5/h1-2H,WCYYQNSQJHPVMG-UHFFFAOYSA-N,Clc1cc2Oc3c(Cl)c(Cl)c(Cl)c(Cl)c3Oc2cc1Cl,-10.9486,0.4807997873913383,3,G5,390.86400000000015,7.505000000000001,83.092,20.0,2.0,0.0,8.0,0.0,104.0,2.0,0.0,1.0,3.0,18.46,143.52935399233553,2.2269680328348387,681.7030107910092,Low,False
B-4431,"2,3,7,8-tetrachlorodibenzofuran",InChI=1S/C12H4Cl4O/c13-7-1-5-6-2-8(14)10(16)4-12(6)17-11(5)3-9(7)15/h1-4H,KSMVNVHUTQZITP-UHFFFAOYSA-N,Clc1cc2oc3cc(Cl)c(Cl)cc3c2cc1Cl,-8.6456,0.1071999999999997,2,G3,305.975,6.1996,73.76,17.0,1.0,0.0,5.0,0.0,86.0,3.0,0.0,0.0,3.0,13.14,116.80212635457087,2.5110009946515177,682.9202949036774,Low,False
B-4432,"1,2,3,7-tetrachlorodibenzodioxin",InChI=1S/C12H4Cl4O2/c13-5-1-2-7-8(3-5)17-9-4-6(14)10(15)11(16)12(9)18-7/h1-4H,SKGXYFVQZVPEFP-UHFFFAOYSA-N,Clc1ccc2Oc3c(Cl)c(Cl)c(Cl)cc3Oc2c1,-8.8744,0.0078000000000004,2,G3,321.97400000000005,6.198200000000002,73.07200000000002,18.0,2.0,0.0,6.0,0.0,92.0,2.0,0.0,1.0,3.0,18.46,122.9228215385722,2.163125974777752,655.0110495664154,Low,False
B-4441,n4-acetylsulfanilamide,"InChI=1S/C8H10N2O3S/c1-6(11)10-7-2-4-8(5-3-7)14(9,12)13/h2-5H,1H3,(H,10,11)(H2,9,12,13)",PKOFBDHYTMYVGJ-UHFFFAOYSA-N,CC(=O)Nc1ccc(cc1)[S](N)(=O)=O,-1.6066,0.3016999999999999,2,G3,214.246,0.2923999999999999,52.11890000000002,14.0,3.0,2.0,6.0,2.0,76.0,1.0,0.0,0.0,1.0,89.25999999999999,81.97333822136977,2.951896247179317,436.159125541551,High,True
B-4453,maleic hydrazide,"InChI=1S/C4H4N2O2/c7-3-1-2-4(8)6-5-3/h1-2H,(H,5,7)(H,6,8)",BGRDGMRNKXEXQD-UHFFFAOYSA-N,O=C1NNC(=O)C=C1,-1.2714,0.1593,2,G3,112.08799999999998,-0.9368000000000004,27.6834,8.0,2.0,2.0,4.0,0.0,42.0,1.0,0.0,0.0,1.0,65.72,44.16219684988224,3.436467025586168,219.36195376207493,High,True
B-4459,chloramphenicol,"InChI=1S/C11H12Cl2N2O5/c12-10(13)11(18)14-8(5-16)9(17)6-1-3-7(4-2-6)15(19)20/h1-4,8-10,16-17H,5H2,(H,14,18)",WIIZWVCIJKGZOK-UHFFFAOYSA-N,OCC(NC(=O)C(Cl)Cl)C(O)c1ccc(cc1)[N+]([O-])=O,-2.1114,0.436462537529473,3,G5,323.13200000000006,0.909,72.56670000000003,20.0,5.0,3.0,9.0,6.0,110.0,1.0,0.0,0.0,1.0,112.70000000000002,123.815473655787,2.821158149823159,480.2067575330304,High,True
B-4463,aminopyrine,"InChI=1S/C13H17N3O/c1-10-12(14(2)3)13(17)16(15(10)4)11-8-6-5-7-9-11/h5-9H,1-4H3",RMMXTBMQSGEXHJ-UHFFFAOYSA-N,CN(C)C1=C(C)N(C)N(c2ccccc2)C1=O,-0.6286,0.1293899875913468,3,G5,231.299,1.55042,70.07400000000003,17.0,4.0,0.0,4.0,2.0,90.0,2.0,0.0,0.0,2.0,30.17,100.68682649695076,2.73026047273788,578.7023102137921,High,True
B-4464,perphenazine,"InChI=1S/C21H26ClN3OS/c22-17-6-7-21-19(16-17)25(18-4-1-2-5-20(18)27-21)9-3-8-23-10-12-24(13-11-23)14-15-26/h1-2,4-7,16,26H,3,8-15H2",RGCVKNLCSQQDEP-UHFFFAOYSA-N,OCCN1CCN(CCCN2c3ccccc3Sc4ccc(Cl)cc24)CC1,-4.1546,0.2326999999999999,2,G3,403.9790000000002,3.942700000000003,113.60580000000004,27.0,5.0,1.0,6.0,6.0,144.0,2.0,1.0,2.0,4.0,29.950000000000003,170.26142506312507,1.4100209962913943,779.7720785762971,Medium,False
B-4470,promethazine,"InChI=1S/C17H20N2S/c1-13(18(2)3)12-19-14-8-4-6-10-16(14)20-17-11-7-5-9-15(17)19/h4-11,13H,12H2,1-3H3",PWWVAXIEGOYWEE-UHFFFAOYSA-N,CC(CN1c2ccccc2Sc3ccccc13)N(C)C,-4.2597,0.1488250949567606,3,G5,284.428,4.239400000000003,87.16200000000006,20.0,3.0,0.0,3.0,3.0,104.0,2.0,0.0,1.0,3.0,6.48,124.9501541097868,2.031569707068425,563.943928696335,Medium,False
B-4476,sulfathiozole,"InChI=1S/C9H9N3O2S2/c10-7-1-3-8(4-2-7)16(13,14)12-9-11-5-6-15-9/h1-6H,10H2,(H,11,12)",JNMRHUJNCSQMMB-UHFFFAOYSA-N,Nc1ccc(cc1)[S](=O)(=O)Nc2sccn2,-2.4248,0.3530133232613183,5,G5,255.324,1.5261,63.77690000000001,16.0,5.0,2.0,7.0,3.0,84.0,2.0,0.0,0.0,2.0,85.08,96.99903734995482,2.2889130817194454,561.3113832440436,High,True
B-4480,theobromine,"InChI=1S/C7H8N4O2/c1-10-3-8-5-4(10)6(12)9-7(13)11(5)2/h3H,1-2H3,(H,9,12,13)",YAPQBXQYLJRXSA-UHFFFAOYSA-N,Cn1cnc2N(C)C(=O)NC(=O)c12,-2.7372,0.3012369623734775,4,G5,180.167,-1.0397,46.5757,13.0,5.0,1.0,6.0,0.0,68.0,2.0,0.0,0.0,2.0,72.68,72.4540434171574,3.178460985506274,574.1705593822571,High,True
B-4481,phthalimide,"InChI=1S/C8H5NO2/c10-7-5-3-1-2-4-6(5)8(11)9-7/h1-4H,(H,9,10,11)",XKJCHHZQLQNZHY-UHFFFAOYSA-N,O=C1NC(=O)c2ccccc12,-2.6114,0.4742358330256224,3,G5,147.13299999999998,0.5702,38.23870000000001,11.0,2.0,1.0,3.0,0.0,54.0,1.0,0.0,1.0,2.0,46.17,63.02836257845652,2.6946772551637395,310.7002242088733,High,True
B-4495,allopurinol,"InChI=1S/C5H4N4O/c10-5-3-1-8-9-4(3)6-2-7-5/h1-2H,(H2,6,7,8,9,10)",OFCNXPDARWKPPY-UHFFFAOYSA-N,O=C1N=CN=C2NNC=C12,-2.3788,0.075754926499132,3,G5,136.11399999999998,-0.4022000000000001,33.6254,10.0,3.0,2.0,5.0,0.0,50.0,0.0,0.0,2.0,2.0,74.43,55.465602237998894,2.9295862435831603,362.1908003330719,High,True
B-4506,sulfamethoxazole,"InChI=1S/C10H11N3O3S/c1-7-6-10(12-16-7)13-17(14,15)9-4-2-8(11)3-5-9/h2-6H,11H2,1H3,(H,12,13)",JLKIGFTWXXRPMT-UHFFFAOYSA-N,Cc1onc(N[S](=O)(=O)c2ccc(N)cc2)c1,-2.6183,0.2490514850833503,3,G5,253.283,1.36602,62.90290000000002,17.0,5.0,2.0,7.0,3.0,90.0,2.0,0.0,0.0,2.0,98.22,98.46930176378612,2.2767262836744524,616.5006093542684,High,True
B-4507,trimethoprim,"InChI=1S/C14H18N4O3/c1-19-10-5-8(6-11(20-2)12(10)21-3)4-9-7-17-14(16)18-13(9)15/h5-7H,4H2,1-3H3,(H4,15,16,17,18)",IEDVJHCEMCRBQM-UHFFFAOYSA-N,COc1cc(Cc2cnc(N)nc2N)cc(OC)c1OC,-2.8608,0.0446000000000001,2,G3,290.32300000000004,1.2575999999999998,79.76080000000003,21.0,7.0,2.0,7.0,5.0,112.0,2.0,0.0,0.0,2.0,105.51,122.40797882758652,2.3975621374281344,621.1065134129683,High,True
B-4514,o-aminophenol,"InChI=1S/C6H7NO/c7-5-3-1-2-4-6(5)8/h1-4,8H,7H2",CDAWCLOXVUBKRW-UHFFFAOYSA-N,Nc1ccccc1O,-0.7369,0.0378919465509444,3,G5,109.128,0.9744,32.5192,8.0,2.0,2.0,2.0,0.0,42.0,1.0,0.0,0.0,1.0,46.25,47.56552756870569,3.134861511345448,164.63833891467198,High,True
B-4515,"2-amino-4,6-dinitrophenol","InChI=1S/C6H5N3O5/c7-4-1-3(8(11)12)2-5(6(4)10)9(13)14/h1-2,10H,7H2",QXYMVUZOGFVPGH-UHFFFAOYSA-N,Nc1cc(cc(c1O)[N+]([O-])=O)[N+]([O-])=O,-2.4862,0.166604395,2,G3,199.122,0.7907999999999997,45.828,14.0,6.0,2.0,8.0,2.0,74.0,1.0,0.0,0.0,1.0,132.53,76.87147901370528,3.427504477934317,416.1731577182378,High,True
B-4516,3-nitroaniline,"InChI=1S/C6H6N2O2/c7-5-2-1-3-6(4-5)8(9)10/h1-4H,7H2",XJCVRTZCHMZPBD-UHFFFAOYSA-N,Nc1cccc(c1)[N+]([O-])=O,-2.0611,0.0644499999999999,2,G3,138.126,1.177,37.50880000000001,10.0,3.0,1.0,4.0,1.0,52.0,1.0,0.0,0.0,1.0,69.16,57.42426953900948,3.069899265759275,259.67965837655686,High,True
B-4517,4-nitroaniline,"InChI=1S/C6H6N2O2/c7-5-1-3-6(4-2-5)8(9)10/h1-4H,7H2",TYMLOMAKGOJONV-UHFFFAOYSA-N,Nc1ccc(cc1)[N+]([O-])=O,-2.2782,0.0459,2,G3,138.126,1.177,37.508800000000015,10.0,3.0,1.0,4.0,1.0,52.0,1.0,0.0,0.0,1.0,69.16,57.42426953900948,3.003400684579818,242.4296583765568,High,True
B-4520,"2,4-dinitrophenol","InChI=1S/C6H4N2O5/c9-6-2-1-4(7(10)11)3-5(6)8(12)13/h1-3,9H",UFBJCMHMOXMLKC-UHFFFAOYSA-N,Oc1ccc(cc1[N+]([O-])=O)[N+]([O-])=O,-2.5976,0.4045783530998787,3,G5,184.107,1.2086000000000003,41.41560000000001,13.0,5.0,1.0,7.0,2.0,68.0,1.0,0.0,0.0,1.0,106.51,71.53158831669259,3.267052212361692,375.28740254995904,High,True
B-4522,4-methyl-2-nitrophenol,"InChI=1S/C7H7NO3/c1-5-2-3-7(9)6(4-5)8(10)11/h2-4,9H,1H3",SYDNSSSQVSOXTN-UHFFFAOYSA-N,Cc1ccc(O)c(c1)[N+]([O-])=O,-2.3837,0.0831499999999998,2,G3,153.137,1.6088199999999997,39.49820000000002,11.0,3.0,1.0,4.0,1.0,58.0,1.0,0.0,0.0,1.0,63.37,63.243554708589386,3.232208870305491,295.7372022742226,High,True
B-4524,4-hydroxybenzaldehyde,"InChI=1S/C7H6O2/c8-5-6-1-3-7(9)4-2-6/h1-5,9H",RGHHSNMVTDWUBI-UHFFFAOYSA-N,Oc1ccc(C=O)cc1,-0.9762,0.0907039629172225,3,G5,122.12299999999998,1.2047,33.4943,9.0,2.0,1.0,2.0,1.0,46.0,1.0,0.0,0.0,1.0,37.3,52.75210108613335,3.009781947786601,200.66106510209755,High,True
B-4534,3-aminobenzoic acid,"InChI=1S/C7H7NO2/c8-6-3-1-2-5(4-6)7(9)10/h1-4H,8H2,(H,9,10)",XFDUHJPVQKIXHO-UHFFFAOYSA-N,Nc1cccc(c1)C(O)=O,-1.3663,0.0418499999999999,2,G3,137.13799999999998,0.967,37.81370000000001,10.0,2.0,2.0,3.0,1.0,52.0,1.0,0.0,0.0,1.0,63.32,58.09199178314606,3.069899265759275,257.53794892648057,High,True
B-4540,"3-amino-2,5-dichlorobenzoic acid","InChI=1S/C7H5Cl2NO2/c8-3-1-4(7(11)12)6(9)5(10)2-3/h1-2H,10H2,(H,11,12)",HSSBORCLYSCBJR-UHFFFAOYSA-N,Nc1cc(Cl)cc(C(O)=O)c1Cl,-2.4688,0.3856000000000001,2,G3,206.028,2.2738,47.8337,12.0,2.0,2.0,5.0,1.0,64.0,1.0,0.0,0.0,1.0,63.32,78.69852423690939,3.3738590108748694,338.423415200434,High,True
B-4541,4-aminobenzoic acid,"InChI=1S/C7H7NO2/c8-6-3-1-5(2-4-6)7(9)10/h1-4H,8H2,(H,9,10)",ALYNCZNDIQEVRV-UHFFFAOYSA-N,Nc1ccc(cc1)C(O)=O,-1.3511,0.4528733475143894,3,G5,137.13799999999998,0.967,37.81370000000001,10.0,2.0,2.0,3.0,1.0,52.0,1.0,0.0,0.0,1.0,63.32,58.09199178314606,3.003400684579818,240.2879489264805,High,True
B-4548,p-hydroxy butyl benzoate,"InChI=1S/C11H14O3/c1-2-3-8-14-11(13)9-4-6-10(12)7-5-9/h4-7,12H,2-3,8H2,1H3",QFOHBWFCKVYLES-UHFFFAOYSA-N,CCCCOC(=O)c1ccc(O)cc1,-2.9723,0.1477831752094939,4,G5,194.23,2.349100000000001,53.29730000000004,14.0,3.0,1.0,3.0,4.0,76.0,1.0,0.0,0.0,1.0,46.53,83.32541477322667,2.4810725342253392,289.9058830612445,High,True
B-4553,methyl p-aminobenzoate,"InChI=1S/C8H9NO2/c1-11-8(10)6-2-4-7(9)5-3-6/h2-5H,9H2,1H3",LZXXNPOYQCLXRS-UHFFFAOYSA-N,COC(=O)c1ccc(N)cc1,-1.5974,0.2113,2,G3,151.16500000000002,1.0554,42.19390000000001,11.0,3.0,1.0,3.0,1.0,58.0,1.0,0.0,0.0,1.0,52.32,64.77624537485353,2.8953480359887567,253.2994975838911,High,True
B-4554,"benzoic acid, 4-amino-,pentyl ester","InChI=1S/C12H17NO2/c1-2-3-4-9-15-12(14)10-5-7-11(13)8-6-10/h5-8H,2-4,9,13H2,1H3",VKYWCHMXHQTCJQ-UHFFFAOYSA-N,CCCCCOC(=O)c1ccc(N)cc1,-3.3499,0.2129846160328644,3,G5,207.273,2.6158,60.66190000000003,15.0,3.0,1.0,3.0,5.0,82.0,1.0,0.0,0.0,1.0,52.32,90.23601383243998,2.3674874478117127,305.90308737575606,High,True
B-4555,"benzoic acid,4-amino-,heptyl ester","InChI=1S/C14H21NO2/c1-2-3-4-5-6-11-17-14(16)12-7-9-13(15)10-8-12/h7-10H,2-6,11,15H2,1H3",IAHJVNSZPMIREM-UHFFFAOYSA-N,CCCCCCCOC(=O)c1ccc(N)cc1,-4.6001,0.2699499999999997,2,G3,235.327,3.3960000000000017,69.89590000000004,17.0,3.0,1.0,3.0,7.0,94.0,1.0,0.0,0.0,1.0,52.32,102.9658980612332,2.1877833988335254,332.5803757963123,Low,False
B-4559,dimethoxymethane,"InChI=1S/C3H8O2/c1-4-3-5-2/h3H2,1-2H3",NKDDWNXOKDWJAK-UHFFFAOYSA-N,COCOC,0.506,0.0687806119882936,3,G5,76.095,0.2367,18.885,5.0,2.0,0.0,2.0,2.0,32.0,0.0,0.0,0.0,0.0,18.46,31.69622571563653,2.19060968716425,12.36452797660028,High,True
B-4571,progesterone,"InChI=1S/C21H30O2/c1-13(22)17-6-7-18-16-5-4-14-12-15(23)8-10-20(14,2)19(16)9-11-21(17,18)3/h12,16-19H,4-11H2,1-3H3/t16-,17+,18-,19-,20-,21+/m0/s1",RJKFOVLPORLFTN-LEKSSAKUSA-N,CC(=O)[C@H]1CC[C@H]2[C@@H]3CCC4=CC(=O)CC[C@]4(C)[C@H]3CC[C@]12C,-4.5526,0.0222359889999999,2,G3,314.46900000000005,4.723500000000005,90.88100000000006,23.0,2.0,0.0,2.0,1.0,126.0,0.0,3.0,4.0,4.0,34.14,139.6482098695481,1.6696033124820626,588.6489897976311,Low,False
B-4573,testosterone,"InChI=1S/C19H28O2/c1-18-9-7-13(20)11-12(18)3-4-14-15-5-6-17(21)19(15,2)10-8-16(14)18/h11,14-17,21H,3-10H2,1-2H3/t14-,15-,16-,17-,18-,19-/m0/s1",MUMGGOZAMZWBJJ-DYKIIFRCSA-N,C[C@]12CC[C@H]3[C@@H](CCC4=CC(=O)CC[C@]34C)[C@@H]1CC[C@@H]2O,-4.0908,0.4936124465500002,2,G3,288.431,3.879200000000003,82.71680000000005,21.0,2.0,1.0,2.0,0.0,116.0,0.0,3.0,4.0,4.0,37.3,127.55103729290713,1.6883496404253646,507.69574308017087,Medium,False
B-4574,androstenedione,"InChI=1S/C19H26O2/c1-18-9-7-13(20)11-12(18)3-4-14-15-5-6-17(21)19(15,2)10-8-16(14)18/h11,14-16H,3-10H2,1-2H3/t14-,15-,16-,18-,19-/m0/s1",AEMFNILZOJDQLW-QAGGRKNESA-N,C[C@]12CC[C@H]3[C@@H](CCC4=CC(=O)CC[C@]34C)[C@@H]1CCC2=O,-3.6949,0.0287240883000001,2,G3,286.415,4.087400000000003,81.71700000000004,21.0,2.0,0.0,2.0,0.0,114.0,0.0,3.0,4.0,4.0,34.14,126.91832564075489,1.703811290891583,545.7696078462164,High,True
B-4582,5-fluorouracil,"InChI=1S/C4H3FN2O2/c5-2-1-6-4(9)7-3(2)8/h1H,(H2,6,7,8,9)",GHASVSINZRGABV-UHFFFAOYSA-N,FC1=CNC(=O)NC1=O,-1.0689,0.0144499999999999,2,G3,130.078,-0.7977000000000001,27.641399999999997,9.0,2.0,2.0,5.0,0.0,48.0,1.0,0.0,0.0,1.0,65.72,48.35927868440375,3.523897718994017,312.83394095677266,High,True
B-4583,5-methyluracil,"InChI=1S/C5H6N2O2/c1-3-2-6-5(9)7-4(3)8/h2H,1H3,(H2,6,7,8,9)",RWQNBRDOKXIBIV-UHFFFAOYSA-N,CC1=CNC(=O)NC1=O,-1.5187,0.0063499999999999,2,G3,126.115,-0.6283800000000002,32.420399999999994,9.0,2.0,2.0,4.0,0.0,48.0,1.0,0.0,0.0,1.0,65.72,50.55868539587412,3.523897718994017,309.2243004823359,High,True
B-4590,cyclobarbital,"InChI=1S/C12H16N2O3/c1-2-12(8-6-4-3-5-7-8)9(15)13-11(17)14-10(12)16/h6H,2-5,7H2,1H3,(H2,13,14,15,16,17)",WTYGAUXICFETTC-UHFFFAOYSA-N,CCC1(C(=O)NC(=O)NC1=O)C2=CCCCC2,-2.1693,0.0746499999999998,2,G3,236.27099999999996,1.2492,60.956400000000016,17.0,3.0,2.0,5.0,2.0,92.0,0.0,1.0,2.0,2.0,75.27000000000001,99.63663961429693,2.4086730423167197,391.9738038616938,High,True
B-4591,allobarbital,"InChI=1S/C10H12N2O3/c1-3-5-10(6-4-2)7(13)11-9(15)12-8(10)14/h3-4H,1-2,5-6H2,(H2,11,12,13,14,15)",FDQGNLOWMMVRQL-UHFFFAOYSA-N,C=CCC1(CC=C)C(=O)NC(=O)NC1=O,-2.0608,0.0096,2,G3,208.217,0.491,53.74240000000002,15.0,3.0,2.0,5.0,4.0,80.0,0.0,1.0,1.0,1.0,75.27000000000001,87.22298350684868,3.0712067017858526,314.5766636881138,High,True
B-4593,amobarbital,"InChI=1S/C11H18N2O3/c1-4-11(6-5-7(2)3)8(14)12-10(16)13-9(11)15/h7H,4-6H2,1-3H3,(H2,12,13,14,15,16)",VIROVYVQCGLCII-UHFFFAOYSA-N,CCC1(CCC(C)C)C(=O)NC(=O)NC1=O,-2.5743,0.0776909690161389,3,G5,226.276,1.1849999999999998,58.47740000000003,16.0,3.0,2.0,5.0,4.0,90.0,0.0,1.0,1.0,1.0,75.27000000000001,94.9671316856138,2.8717018629932234,303.19136469282626,High,True
B-4609,terbutryn,"InChI=1S/C10H19N5S/c1-6-11-7-12-8(15-10(2,3)4)14-9(13-7)16-5/h6H2,1-5H3,(H2,11,12,13,14,15)",IROINLKCQGIITA-UHFFFAOYSA-N,CCNc1nc(NC(C)(C)C)nc(SC)n1,-3.9847,0.0076499999999999,2,G3,241.364,2.2357,69.14740000000003,16.0,6.0,2.0,6.0,4.0,90.0,1.0,0.0,0.0,1.0,62.73,100.86777625569408,2.945000898431184,347.5528924740622,Medium,False
B-4614,desethylatrazine,"InChI=1S/C6H10ClN5/c1-3(2)9-6-11-4(7)10-5(8)12-6/h3H,1-2H3,(H3,8,9,10,11,12)",DFWFIQKMSFGDCQ-UHFFFAOYSA-N,CC(C)Nc1nc(N)nc(Cl)n1,-2.7063,0.46815,2,G3,187.634,0.9275,48.008100000000006,12.0,5.0,2.0,6.0,2.0,66.0,1.0,0.0,0.0,1.0,76.72,75.37819251302875,2.854706890657317,254.39099680660752,High,True
B-4615,prometryne,"InChI=1S/C10H19N5S/c1-6(2)11-8-13-9(12-7(3)4)15-10(14-8)16-5/h6-7H,1-5H3,(H2,11,12,13,14,15)",AAEVYOVXGOFMJO-UHFFFAOYSA-N,CSc1nc(NC(C)C)nc(NC(C)C)n1,-3.8642,0.1178999999999999,2,G3,241.364,2.2341,69.12540000000003,16.0,6.0,2.0,6.0,5.0,90.0,1.0,0.0,0.0,1.0,62.73,100.86777625569404,2.911011564812741,311.7313157250365,Medium,False
B-4622,dl-phenylalanine,"InChI=1S/C9H11NO2/c10-8(9(11)12)6-7-4-2-1-3-5-7/h1-5,8H,6,10H2,(H,11,12)",COLNVLDHVKWLRT-UHFFFAOYSA-N,NC(Cc1ccccc1)C(O)=O,-1.0657,0.1824534799064458,4,G5,165.19199999999995,0.641,45.75720000000002,12.0,2.0,2.0,3.0,3.0,64.0,1.0,0.0,0.0,1.0,63.32,70.82187601193928,2.58460408239752,258.4908622767174,High,True
B-4638,nicotinic acid,"InChI=1S/C6H5NO2/c8-6(9)5-2-1-3-7-4-5/h1-4H,(H,8,9)",PVNIIMVLHYAWGP-UHFFFAOYSA-N,OC(=O)c1cccnc1,-0.835,0.4749680521383898,3,G5,123.11099999999998,0.7797999999999999,31.196299999999997,9.0,2.0,1.0,3.0,1.0,46.0,1.0,0.0,0.0,1.0,50.19,51.97174906707986,2.981454614041131,207.5576620543373,High,True
B-4640,"1-octanesulfonamide, n-(octylsulfonyl)-","InChI=1S/C16H35NO4S2/c1-3-5-7-9-11-13-15-22(18,19)17-23(20,21)16-14-12-10-8-6-4-2/h17H,3-16H2,1-2H3",GLIMMBJQTXCOMG-UHFFFAOYSA-N,CCCCCCCC[S](=O)(=O)N[S](=O)(=O)CCCCCCCC,-3.9145,0.4972499999999999,2,G3,369.5930000000004,3.956600000000003,97.46130000000008,23.0,4.0,1.0,7.0,16.0,140.0,0.0,0.0,0.0,0.0,80.31,143.2847967122169,3.91924478369086,428.3087036589821,Medium,False
B-4641,chloroacetamide,"InChI=1S/C2H4ClNO/c3-1-2(4)5/h1H2,(H2,4,5)",VXIVSQZSERGHQP-UHFFFAOYSA-N,NC(=O)CCl,-0.0166,0.1228277576040234,3,G5,93.513,-0.2895000000000001,19.9144,5.0,1.0,1.0,3.0,1.0,30.0,0.0,0.0,0.0,0.0,43.09,34.90887216616431,2.847378923087672,44.912609383243264,High,True
B-4646,n-methylacetanilide,"InChI=1S/C9H11NO/c1-8(11)10(2)9-6-4-3-5-7-9/h3-7H,1-2H3",LMTGCJANOQOGPI-UHFFFAOYSA-N,CN(C(C)=O)c1ccccc1,-0.951,0.1004999999999999,2,G3,149.19299999999998,1.6693,45.52600000000003,11.0,1.0,0.0,2.0,1.0,58.0,1.0,0.0,0.0,1.0,20.31,66.44758523293392,2.851177890164404,242.9994627262031,High,True
B-4647,propachlor,"InChI=1S/C11H14ClNO/c1-9(2)13(11(14)8-12)10-6-4-3-5-7-10/h3-7,9H,8H2,1-2H3",MFOUDYKPLGXPGO-UHFFFAOYSA-N,CC(C)N(C(=O)CCl)c1ccccc1,-2.4806,0.2603,2,G3,211.69200000000004,2.666800000000001,59.78400000000004,14.0,1.0,0.0,3.0,3.0,76.0,1.0,0.0,0.0,1.0,20.31,89.48073568860885,2.9490603525213714,297.4156580655714,High,True
C-9,glycine,"InChI=1S/C2H5NO2/c3-1-2(4)5/h1,3H2,(H,4,5)",DHMQDGOQFOQNFH-UHFFFAOYSA-N,NCC(O)=O,0.92,0.19875452565,2,G3,75.067,-0.9703,16.6902,5.0,2.0,2.0,3.0,1.0,30.0,0.0,0.0,0.0,0.0,63.32,29.39983969147865,2.847378923087672,42.91260938324327,High,True