ID,Name,InChI,InChIKey,SMILES,Solubility,SD,Ocurrences,Group,MolWt,MolLogP,MolMR,HeavyAtomCount,NumHAcceptors,NumHDonors,NumHeteroatoms,NumRotatableBonds,NumValenceElectrons,NumAromaticRings,NumSaturatedRings,NumAliphaticRings,RingCount,TPSA,LabuteASA,BalabanJ,BertzCT,bin,is_sol
A-3262,2-[4-(2-hydroxyethyl)piperazin-1-yl]ethanesulfonic acid,"InChI=1S/C8H18N2O4S.Na/c11-7-5-9-1-3-10(4-2-9)6-8-15(12,13)14;/h11H,1-8H2,(H,12,13,14);/q;+1/p-1",RDZTWEVXRGYCFV-UHFFFAOYSA-M,[Na+].OCCN1CCN(CC1)CC[S]([O-])(=O)=O,0.4318666789,0.0163721266499999,2,G3,260.291,-4.854499999999995,54.53000000000005,16.0,6.0,1.0,8.0,5.0,90.0,0.0,1.0,1.0,1.0,83.91,118.64395140043187,2.249998813500648e-06,277.76289771739926,High,True
A-3264,"1,2,4-triazole","InChI=1S/C2H3N3/c1-3-2-5-4-1/h1-2H,(H,3,4,5)",NSPMIYGKQJPBQR-UHFFFAOYSA-N,[nH]1cncn1,1.0058274476,0.0091124100999999,2,G3,69.067,-0.1952999999999999,16.3827,5.0,2.0,1.0,3.0,0.0,26.0,1.0,0.0,0.0,1.0,41.57,29.04831307080901,3.1250000000000004,61.369930610534254,High,True
A-3266,sodium formate,"InChI=1S/CH2O2.Na/c2-1-3;/h1H,(H,2,3);/q;+1/p-1",HLBBKKJFGFRGMU-UHFFFAOYSA-M,[Na+].[O-]C=O,1.0125444228,0.128538698695958,7,G5,68.007,-4.629899999999999,6.064,4.0,2.0,0.0,3.0,0.0,18.0,0.0,0.0,0.0,0.0,40.13,46.10840650278127,0.0,13.509775004326936,High,True
A-3270,"benzene-1,4-diol","InChI=1S/C6H6O2/c7-5-1-2-6(8)4-3-5/h1-4,7-8H",QIGBRXMKCJKVMJ-UHFFFAOYSA-N,Oc1ccc(O)cc1,-0.1967366109,0.1297366887615641,6,G5,110.11199999999998,1.0978,29.7716,8.0,2.0,2.0,2.0,0.0,42.0,1.0,0.0,0.0,1.0,40.46,47.01987062388899,3.0324555320336755,145.38833891467198,High,True
A-3273,"acid D,L-aspart","InChI=1S/C4H7NO4/c5-2(4(8)9)1-3(6)7/h2H,1,5H2,(H,6,7)(H,8,9)",CKLJMWTZIZZHCS-UHFFFAOYSA-N,NC(CC(O)=O)C(O)=O,-1.2293181874,0.3593841489429584,8,G5,133.10299999999998,-1.127,27.864,9.0,3.0,3.0,5.0,3.0,52.0,0.0,0.0,0.0,0.0,100.62,51.08547977251164,3.632432151939845,132.52932501298082,High,True
A-3284,ethylbis(propan-2-yl)amine,"InChI=1S/C8H19N/c1-6-9(7(2)3)8(4)5/h7-8H,6H2,1-5H3",JGFZNNIVVJXRND-UHFFFAOYSA-N,CCN(C(C)C)C(C)C,-1.2416022633,0.123693260585789,3,G5,129.247,2.1251,42.652000000000015,9.0,1.0,0.0,1.0,3.0,56.0,0.0,0.0,0.0,0.0,3.24,59.05367949880917,3.677615681908372,58.96788691072806,High,True
A-3290,"propan-2-yl 2,2,2-trifluoroacetate","InChI=1S/C5H7F3O2/c1-3(2)10-4(9)5(6,7)8/h3H,1-2H3",ASAXRKSDVDALDT-UHFFFAOYSA-N,CC(C)OC(=O)C(F)(F)F,-1.336078753,0.0782366319140094,4,G5,156.10299999999998,1.5003000000000002,27.28299999999999,10.0,2.0,0.0,5.0,1.0,60.0,0.0,0.0,0.0,0.0,26.3,55.970693023745326,3.867280781013407,127.3449779679464,High,True
A-3301,(1-hydroxy-1-phosphonoethyl)phosphonic acid,"InChI=1S/CH2O2/c2-1-3/h1H,(H,2,3)",BDAGIHXWWSANSR-UHFFFAOYSA-N,OC=O,1.1758552936,0.0805723532,2,G3,46.025,-0.2991999999999999,8.6928,3.0,1.0,1.0,2.0,0.0,18.0,0.0,0.0,0.0,0.0,37.3,17.69500688006933,2.1874960973678963,10.264662506490405,High,True
A-3318,disodium 6-hydroxy-5-[(E)-2-{4-[(E)-2-[4-(phenylamino)-3-sulfonatophenyl]diazen-1-yl]naphthalen-1-yl}diazen-1-yl]naphthalene-2-sulfonate,"InChI=1S/C32H23N5O7S2.2Na/c38-30-17-10-20-18-23(45(39,40)41)12-13-24(20)32(30)37-36-28-16-15-27(25-8-4-5-9-26(25)28)35-34-22-11-14-29(31(19-22)46(42,43)44)33-21-6-2-1-3-7-21;;/h1-19,33,36H,(H,39,40,41)(H,42,43,44);;/q;2*+1/p-2/b35-34?,37-32+;;",IQEHCFKNGZTEDA-LAEQOQJSSA-L,[Na+].[Na+].[O-][S](=O)(=O)c1ccc2c(C=CC(=O)/C2=N/Nc3ccc(N=Nc4ccc(Nc5ccccc5)c(c4)[S]([O-])(=O)=O)c6ccccc36)c1,-1.0156300044,0.0698600337999999,2,G3,697.6620000000001,0.2271000000000065,170.85979999999975,48.0,12.0,2.0,16.0,8.0,230.0,5.0,0.0,1.0,6.0,192.61,319.7062386246463,2.6009961470834326e-06,2350.235813706178,High,True
A-3325,2-amino-3-sulfanylpropanoic acid hydrochloride,"InChI=1S/C3H7NO2S.ClH/c4-2(1-7)3(5)6;/h2,7H,1,4H2,(H,5,6);1H/t2-;/m0./s1",IFQSXNOEEPCSLW-DKWTVANSSA-N,[Cl-].N[C@@H](CS)C(O)=O.[H+],0.6219271018,0.0320135044902078,3,G5,157.622,-3.5553999999999983,30.5762,8.0,3.0,3.0,5.0,2.0,50.0,0.0,0.0,0.0,0.0,63.32,60.55774009132193,-1.799999899875006e-07,84.2129994085646,High,True
A-3328,butan-1-ol,"InChI=1S/C4H10O/c1-2-3-4-5/h5H,2-4H2,1H3",LRHPLDYGYMQRHN-UHFFFAOYSA-N,CCCCO,-0.0504090528,0.0289013312590451,3,G5,74.12299999999999,0.7787999999999999,21.9938,5.0,1.0,1.0,1.0,2.0,32.0,0.0,0.0,0.0,0.0,20.23,32.62831112321538,2.19060968716425,11.119415478763749,High,True
A-3330,iron(3+) chloride sulfate,"InChI=1S/Cl.Fe.H2O4S/c;;1-5(2,3)4/h;;(H2,1,2,3,4)/p-2",NGYBMUURDZXEEA-UHFFFAOYSA-L,[Cl].[Fe].[O-][S]([O-])(=O)=O,0.540234161,0.3788868648948534,8,G5,187.361,-0.6509999999999998,16.3276,7.0,4.0,0.0,7.0,0.0,47.0,0.0,0.0,0.0,0.0,80.25999999999999,57.754896076497786,-7.999999835000003e-08,94.8582023226588,High,True
A-3331,iron(3+) ion trichloride,InChI=1S/3ClH.Fe/h3*1H;/q;;;+3/p-3,RBTARNINKXHZNM-UHFFFAOYSA-K,[Cl-].[Cl-].[Cl-].[Fe+3],0.6028517968,0.3788868648670626,8,G5,162.204,-8.990499999999999,0.0,4.0,0.0,0.0,4.0,0.0,29.0,0.0,0.0,0.0,0.0,0.0,54.42337778977272,-0.0,3.2451124978365318,High,True
A-3333,iron(+2) cation sulfate,"InChI=1S/Fe.H2O4S/c;1-5(2,3)4/h;(H2,1,2,3,4)/q+2;/p-2",BAUYGSIQEAFULO-UHFFFAOYSA-L,[Fe++].[O-][S]([O-])(=O)=O,0.6313327107,0.37888686488651,8,G5,151.908,-1.3405,10.4746,6.0,4.0,0.0,6.0,0.0,38.0,0.0,0.0,0.0,0.0,80.25999999999999,45.60180282394836,0.0,90.7164928725825,High,True
A-3335,sodium 3-({3-methoxy-4-[(4-methoxyphenyl)diazenyl]phenyl}diazenyl)benzenesulfonate,"InChI=1S/C20H18N4O5S.Na/c1-28-17-9-6-14(7-10-17)21-24-19-11-8-16(13-20(19)29-2)23-22-15-4-3-5-18(12-15)30(25,26)27;/h3-13H,1-2H3,(H,25,26,27);/q;+1/p-1",JGUAUYIJLLJIQS-UHFFFAOYSA-M,[Na+].COc1ccc(cc1)N=Nc2ccc(cc2OC)N=Nc3cccc(c3)[S]([O-])(=O)=O,-0.8354591701,0.09187935,2,G3,448.43600000000015,2.442700000000001,108.7452,31.0,9.0,0.0,11.0,7.0,154.0,3.0,0.0,0.0,3.0,125.1,201.4381575411628,3.413328280896666e-06,1198.4470005138612,High,True
A-3337,Pyrithione sodium,InChI=1S/C5H4NOS.Na/c7-6-4-2-1-3-5(6)8;/h1-4H;/q-1;+1,XNRNJIIJLOFJEK-UHFFFAOYSA-N,[Na+].[O-]N1C=CC=CC1=S,0.6370124426,0.0235594108999999,2,G3,149.14999999999995,-1.4325099999999993,34.031,9.0,3.0,0.0,4.0,0.0,42.0,1.0,0.0,0.0,1.0,27.99,80.38147470862961,6.399999377333394e-07,234.39964603589556,High,True
A-3339,"sodium (2R)-2-[(1S)-1,2-dihydroxyethyl]-4-hydroxy-5-oxo-2,5-dihydrofuran-3-olate","InChI=1S/C6H7O6.Na/c7-1-2(8)5-3(9)4(10)6(11)12-5;/h2,5,7-8,10H,1H2;/q-1;+1/t2-,5?;/m0./s1",IFVCRSPJFHGFCG-HXPAKLQESA-N,[Na+].OC[C@H](O)C1OC(=O)[C-](O)C1=O,0.5110430921,0.10294036495,2,G3,198.106,-5.257409999999997,33.15839999999999,13.0,6.0,3.0,7.0,2.0,68.0,0.0,1.0,1.0,1.0,104.06,95.79082075517776,1.439999606400111e-06,217.1700163058029,High,True
A-3340,nickel(2+) ion dichloride,InChI=1S/2ClH.Ni/h2*1H;/q;;+2/p-2,QMMRZOWCJAIUJA-UHFFFAOYSA-L,[Cl-].[Cl-].[Ni++],0.6949333776000001,0.2986493442499999,2,G3,129.599,-5.9945,0.0,3.0,0.0,0.0,3.0,0.0,24.0,0.0,0.0,0.0,0.0,0.0,41.72141688471463,-0.0,2.754887502163468,High,True
A-3346,"hexane-1,6-diamine",InChI=1S/C6H16N2/c7-5-3-1-2-4-6-8/h1-8H2,NAQMVNRVTILPCV-UHFFFAOYSA-N,NCCCCCCN,0.7389034055,0.09804829725,2,G3,116.208,0.4642,36.57679999999999,8.0,2.0,2.0,2.0,5.0,50.0,0.0,0.0,0.0,0.0,52.04,51.243742993838026,2.53006045688352,31.509775004326936,High,True
A-3347,sodium hydroxymethanesulfinate,"InChI=1S/CH4O3S.Na/c2-1-5(3)4;/h2H,1H2,(H,3,4);/q;+1/p-1",XWGJFPHUCFXLBL-UHFFFAOYSA-M,[Na+].OC[S]([O-])=O,0.731520726,0.09813491455,2,G3,118.08899999999998,-4.180699999999999,16.0056,6.0,3.0,1.0,5.0,1.0,32.0,0.0,0.0,0.0,0.0,60.36,60.32437623456747,0.0,46.05785641096992,High,True
A-3348,1H-imidazole,"InChI=1S/C3H4N2/c1-2-5-3-4-1/h1-3H,(H,4,5)",RAXXELZNTBOGNW-UHFFFAOYSA-N,[nH]1ccnc1,0.9683905422,0.0100549092,2,G3,68.079,0.4096999999999999,18.587699999999995,5.0,1.0,1.0,2.0,0.0,26.0,1.0,0.0,0.0,1.0,28.68,29.860211521457774,3.1250000000000004,61.369930610534254,High,True
A-3364,calcium dipropanoate,"InChI=1S/2C3H6O2.Ca/c2*1-2-3(4)5;/h2*2H2,1H3,(H,4,5);/q;;+2/p-2",BCZXFFBUYPCTSJ-UHFFFAOYSA-L,[Ca++].CCC([O-])=O.CCC([O-])=O,-0.4769347221,0.33390312125,2,G3,186.21999999999997,-2.0881999999999987,36.35,11.0,4.0,0.0,5.0,2.0,60.0,0.0,0.0,0.0,0.0,80.25999999999999,95.59707245304556,-1.0666666563333336e-07,99.14991061829625,High,True
A-3365,"2,2-bis(hydroxymethyl)propane-1,3-diol","InChI=1S/C5H12O4/c6-1-5(2-7,3-8)4-9/h6-9H,1-4H2",WXZMFSXDPGVJKK-UHFFFAOYSA-N,OCC(CO)(CO)CO,-0.3416163866,0.0678138150679256,3,G5,136.147,-2.058,30.77619999999999,9.0,4.0,4.0,4.0,4.0,56.0,0.0,0.0,0.0,0.0,80.92,53.37595449420002,3.824684203207495,51.84847143196431,High,True
A-3373,"tripotassium 2-hydroxypropane-1,2,3-tricarboxylate","InChI=1S/C6H8O7.3K/c7-3(8)1-6(13,5(11)12)2-4(9)10;;;/h13H,1-2H2,(H,7,8)(H,9,10)(H,11,12);;;/q;3*+1/p-3",QEEAPRPFLLJWCF-UHFFFAOYSA-K,[K+].[K+].[K+].OC(CC([O-])=O)(CC([O-])=O)C([O-])=O,0.2961937852,0.20252404835,2,G3,306.39300000000003,-14.240600000000002,29.204799999999995,16.0,7.0,1.0,10.0,5.0,74.0,0.0,0.0,0.0,0.0,140.62,218.9931569948156,-2.399999741500029e-07,238.5067183824432,High,True
A-3374,"1,4-bis({3-[2-(2-hydroxyethoxy)ethoxy]propyl}amino)-9,10-dihydroanthracene-9,10-dione","InChI=1S/C28H38N2O8/c31-11-15-37-19-17-35-13-3-9-29-23-7-8-24(30-10-4-14-36-18-20-38-16-12-32)26-25(23)27(33)21-5-1-2-6-22(21)28(26)34/h1-2,5-8,29-32H,3-4,9-20H2",FRFQXYOWMSJIJR-UHFFFAOYSA-N,OCCOCCOCCCNc1ccc(NCCCOCCOCCO)c2C(=O)c3ccccc3C(=O)c12,0.0571886956,0.10901466305,2,G3,530.6180000000004,2.116999999999999,143.4099999999999,38.0,10.0,4.0,10.0,20.0,208.0,2.0,0.0,1.0,3.0,135.58,222.78715699210068,1.5956925264360755,949.9083655277406,High,True
A-3375,acetic acid,"InChI=1S/C2H4O2/c1-2(3)4/h1H3,(H,3,4)",QTBSBXVTEAMEQO-UHFFFAOYSA-N,CC(O)=O,1.0017178079,0.10989109605,2,G3,60.05200000000001,0.0908999999999999,13.3098,4.0,1.0,1.0,2.0,0.0,24.0,0.0,0.0,0.0,0.0,37.3,24.05994899446593,2.8030394876740514,27.019550008653876,High,True
A-3379,2-methylprop-2-enal,"InChI=1S/C4H6O/c1-4(2)3-5/h3H,1H2,2H3",STNJBCKSHOAVAJ-UHFFFAOYSA-N,CC(=C)C=O,-0.0675110058,0.0507715266596918,4,G5,70.09100000000001,0.7614000000000001,20.877999999999997,5.0,1.0,0.0,1.0,1.0,28.0,0.0,0.0,0.0,0.0,17.07,31.30599643887889,3.204805417886435,54.66829050039844,High,True
A-3380,2-methylpropanal,"InChI=1S/C4H8O/c1-4(2)3-5/h3-4H,1-2H3",AMIMRNSIRUDHCM-UHFFFAOYSA-N,CC(C)C=O,-0.0798261768,0.0856130884,2,G3,72.107,0.8412999999999999,20.901999999999997,5.0,1.0,0.0,1.0,1.0,30.0,0.0,0.0,0.0,0.0,17.07,31.995599471063137,2.825749368745867,30.62919048309069,High,True
A-3389,2-[1-(carboxymethyl)cyclohexyl]acetic acid,"InChI=1S/C10H16O4/c11-8(12)6-10(7-9(13)14)4-2-1-3-5-10/h1-7H2,(H,11,12)(H,13,14)",YQPCHPBGAALCRT-UHFFFAOYSA-N,OC(=O)CC1(CCCCC1)CC(O)=O,-1.4722340504,0.2156877530818167,3,G5,200.234,1.8863,50.02360000000003,14.0,2.0,2.0,4.0,4.0,80.0,0.0,1.0,1.0,1.0,74.6,82.92941060834939,2.6568768463463908,210.27649744866903,High,True
A-3397,benzaldehyde,InChI=1S/C7H6O/c8-6-7-4-2-1-3-5-7/h1-6H,HUMNYLRZRPPJDN-UHFFFAOYSA-N,O=Cc1ccccc1,-1.2095723109,0.1662630255952807,3,G5,106.12399999999997,1.4991,31.829499999999992,8.0,1.0,0.0,1.0,1.0,40.0,1.0,0.0,0.0,1.0,17.07,47.95786733393734,2.991046914684621,167.00151696675914,High,True
A-3403,"1,3-dihydro-2-benzofuran-1,3-dione",InChI=1S/C8H4O3/c9-7-5-3-1-2-4-6(5)8(10)11-7/h1-4H,LGRFSURHDFAFJT-UHFFFAOYSA-N,O=C1OC(=O)c2ccccc12,-1.3644249332,0.1828624098814527,4,G5,148.11699999999996,0.9972,36.18800000000001,11.0,3.0,0.0,3.0,0.0,54.0,1.0,0.0,1.0,2.0,43.370000000000005,62.59204562435536,2.6946772551637395,307.9453367067098,High,True
A-3404,"(E)-1,2-dichloroethene",InChI=1S/C2H2Cl2/c3-1-2-4/h1-2H/b2-1+,KFUSEUYYWQURPO-OWOJBTEDSA-N,Cl\C=C\Cl,-1.1871803856999998,0.12760980715,2,G3,96.94400000000002,1.9352,20.846,4.0,0.0,0.0,2.0,0.0,24.0,0.0,0.0,0.0,0.0,0.0,35.02112256380526,2.549193338482967,19.219280948873624,High,True
A-3407,quinoline,InChI=1S/C9H7N/c1-2-6-9-8(4-1)5-3-7-10-9/h1-7H,SMWDFEZZVXVKRB-UHFFFAOYSA-N,c1ccc2ncccc2c1,-1.325093551,0.0134360731999999,2,G3,129.16199999999998,2.2348,41.743000000000016,10.0,1.0,0.0,1.0,0.0,48.0,2.0,0.0,0.0,2.0,12.89,59.33271563217868,2.888051601657992,275.7051383449476,High,True
A-3412,2-amino-5-methylbenzene-1-sulfonic acid,"InChI=1S/C7H9NO3S/c1-5-2-3-6(8)7(4-5)12(9,10)11/h2-4H,8H2,1H3,(H,9,10,11)",LTPSRQRIPCVMKQ-UHFFFAOYSA-N,Cc1ccc(N)c(c1)[S](O)(=O)=O,-1.4942009905000002,0.0378995047499999,2,G3,187.22,0.82392,45.40600000000001,12.0,3.0,2.0,5.0,1.0,66.0,1.0,0.0,0.0,1.0,80.39,70.7648719409469,3.4344939089006497,397.1125573446092,High,True
A-3416,imidazolidin-2-one,"InChI=1S/C3H6N2O/c6-3-4-1-2-5-3/h1-2H2,(H2,4,5,6)",YAMHXTCMCPHKLN-UHFFFAOYSA-N,O=C1NCCN1,0.8402733738,0.1094586735050284,3,G5,86.09400000000001,-0.7008000000000001,21.401399999999995,6.0,1.0,2.0,3.0,0.0,34.0,0.0,1.0,1.0,1.0,41.13,35.72455057035339,2.3673518510178746,63.19344939991072,High,True
A-3432,"1,3-bis(acetyloxy)propan-2-yl acetate","InChI=1S/C9H14O6/c1-6(10)13-4-9(15-8(3)12)5-14-7(2)11/h9H,4-5H2,1-3H3",URAYPUMNDPQOKB-UHFFFAOYSA-N,CC(=O)OCC(COC(C)=O)OC(C)=O,-0.5754367043,0.04541032059438,3,G5,218.205,0.0442999999999997,48.82000000000003,15.0,6.0,0.0,6.0,5.0,86.0,0.0,0.0,0.0,0.0,78.9,87.48398993165436,3.9922055468289934,228.9871242601569,High,True
A-3435,"2-hydroxypropane-1,2,3-tricarboxylic acid","InChI=1S/C6H8O7/c7-3(8)1-6(13,5(11)12)2-4(9)10/h13H,1-2H2,(H,7,8)(H,9,10)(H,11,12)",KRKNYBCHXYNGOX-UHFFFAOYSA-N,OC(=O)CC(O)(CC(O)=O)C(O)=O,0.4768431239,0.0818645047463675,5,G5,192.123,-1.2485,37.09119999999999,13.0,4.0,4.0,7.0,5.0,74.0,0.0,0.0,0.0,0.0,132.13000000000002,72.22546290872793,4.619312134964085,227.36732222044088,High,True
A-3437,"1H-1,2,4-triazol-3-amine","InChI=1S/C2H4N4/c3-2-4-1-5-6-2/h1H,(H3,3,4,5,6)",KLSJWNVTNUYHDU-UHFFFAOYSA-N,Nc1[nH]ncn1,0.8326929954000001,0.2911354281144395,4,G5,84.082,-0.6131000000000004,20.795100000000005,6.0,3.0,2.0,4.0,0.0,32.0,1.0,0.0,0.0,1.0,67.59,34.388203767821736,3.049648321313926,109.10850553448522,High,True
A-3438,"tris(2-hydroxyethyl)-1,3,5-triazinane-2,4,6-trione","InChI=1S/C9H15N3O6/c13-4-1-10-7(16)11(2-5-14)9(18)12(3-6-15)8(10)17/h13-15H,1-6H2",BPXVHIRIPLPOPT-UHFFFAOYSA-N,OCCN1C(=O)N(CCO)C(=O)N(CCO)C1=O,0.3403663284,0.1516509058,2,G3,261.234,-3.851399999999997,60.47940000000002,18.0,9.0,3.0,9.0,6.0,102.0,1.0,0.0,0.0,1.0,126.69000000000004,100.77718176522148,3.5911305736027184,457.8646125297857,High,True
A-3439,"sodium dihydrogen 2-hydroxypropane-1,2,3-tricarboxylate","InChI=1S/C6H8O7.Na/c7-3(8)1-6(13,5(11)12)2-4(9)10;/h13H,1-2H2,(H,7,8)(H,9,10)(H,11,12);/q;+1/p-1",HWPKGOGLCKPRLZ-UHFFFAOYSA-M,[Na+].OC(=O)CC(O)(CC(O)=O)C([O-])=O,0.4252480461999999,0.3127705436,2,G3,214.105,-5.579199999999998,34.462399999999995,14.0,5.0,3.0,8.0,5.0,74.0,0.0,0.0,0.0,0.0,134.96,100.63886253143993,0.0,232.56457479341316,High,True
A-3444,xylose,"InChI=1S/C5H10O5/c6-2-1-10-5(9)4(8)3(2)7/h2-9H,1H2",SRBFZHDQGSBBOR-UHFFFAOYSA-N,OC1COC(O)C(O)C1O,0.5778808511,0.1407352666381503,5,G5,150.13,-2.5823000000000005,29.979199999999988,10.0,5.0,4.0,5.0,0.0,60.0,0.0,1.0,1.0,1.0,90.15,57.48366857017767,2.515835979311492,102.6059378176129,High,True
A-3469,(E)-1-methyl-3-nitro-2-(oxolan-3-ylmethyl)guanidine,"InChI=1S/C7H14N4O3/c1-8-7(10-11(12)13)9-4-6-2-3-14-5-6/h6H,2-5H2,1H3,(H2,8,9,10)",YKBZOVFACRVRJN-UHFFFAOYSA-N,CN=C(NCC1CCOC1)N[N+]([O-])=O,-0.5694147178,0.1272038912760618,4,G5,202.214,-0.6203999999999994,50.41780000000002,14.0,4.0,2.0,7.0,3.0,80.0,0.0,1.0,1.0,1.0,88.78999999999999,81.65477638599782,2.2301377160238998,224.9747969868553,High,True
A-3472,ethyl 3-ethoxypropanoate,"InChI=1S/C7H14O3/c1-3-9-6-5-7(8)10-4-2/h3-6H2,1-2H3",BHXIWUJLHYHGSJ-UHFFFAOYSA-N,CCOCCC(=O)OCC,-0.4317085178,0.0055542589,2,G3,146.18599999999998,0.9761,37.743,10.0,3.0,0.0,3.0,5.0,60.0,0.0,0.0,0.0,0.0,35.53,61.31751627326671,3.052375189045708,90.85200900961468,High,True
A-3475,methyl cyanoacetate,"InChI=1S/C4H5NO2/c1-7-4(6)2-3-5/h2H2,1H3",ANGDWNBGPBMQHW-UHFFFAOYSA-N,COC(=O)CC#N,-0.2636316857,0.1691913515,2,G3,99.089,0.0730799999999999,22.24599999999999,7.0,3.0,0.0,3.0,1.0,38.0,0.0,0.0,0.0,0.0,50.09,41.50172438203874,3.2293841613651484,102.7476472676892,High,True
A-3481,ethyl 2-cyanoacetate,"InChI=1S/C5H7NO2/c1-2-8-5(7)3-4-6/h2-3H2,1H3",ZIUSEGSNTOUIPT-UHFFFAOYSA-N,CCOC(=O)CC#N,-0.3276124069,0.2094955880941498,3,G5,113.116,0.46318,26.86299999999999,8.0,3.0,0.0,3.0,2.0,44.0,0.0,0.0,0.0,0.0,50.09,47.866666496435336,3.225685725828485,114.0873023894918,High,True
A-3498,sodium (ethoxymethanethioyl)sulfanide,"InChI=1S/C3H6OS2.Na/c1-2-4-3(5)6;/h2H2,1H3,(H,5,6);/q;+1/p-1",RZFBEFUNINJXRQ-UHFFFAOYSA-M,[Na+].CCOC([S-])=S,0.5443381649,0.0063559827499999,2,G3,144.196,-2.1412999999999998,31.588999999999995,7.0,3.0,0.0,4.0,1.0,36.0,0.0,0.0,0.0,0.0,9.23,76.50992701944818,0.0,56.89659695223976,High,True
A-3500,"octane-1,8-diamine",InChI=1S/C8H20N2.2ClH/c9-7-5-3-1-2-4-6-8-10;;/h1-10H2;2*1H,ZFLWZOGXFQNIMT-UHFFFAOYSA-N,[Cl-].[Cl-].[NH3+]CCCCCCCC[NH3+],0.3621421768,0.0303489201999999,2,G3,217.18399999999997,-6.181200000000002,43.2122,12.0,0.0,2.0,4.0,7.0,78.0,0.0,0.0,0.0,0.0,55.28,88.2798137277301,-4.049999358750106e-07,55.01955000865387,High,True
A-3503,2-(dimethylamino)ethyl 2-methylprop-2-enoate,"InChI=1S/C8H15NO2/c1-7(2)8(10)11-6-5-9(3)4/h1,5-6H2,2-4H3",JKNCOURZONDCGV-UHFFFAOYSA-N,CN(C)CCOC(=O)C(C)=C,0.5024815492,0.1505149978,2,G3,157.21299999999997,0.6672999999999998,44.32700000000001,11.0,3.0,0.0,3.0,4.0,64.0,0.0,0.0,0.0,0.0,29.54,67.63914379617556,3.3972180387789788,152.1710478569335,High,True
A-3506,5-oxo-DL-proline,"InChI=1S/C5H7NO3/c7-4-2-1-3(6-4)5(8)9/h3H,1-2H2,(H,6,7)(H,8,9)",ODHCTXKNWHHXJC-UHFFFAOYSA-N,OC(=O)C1CCC(=O)N1,-0.4042589172,0.4856294586,2,G3,129.115,-0.6504000000000001,28.800499999999992,9.0,2.0,2.0,4.0,1.0,50.0,0.0,1.0,1.0,1.0,66.39999999999999,51.86032846777834,2.4808965270174173,154.28209708830377,High,True
A-3508,butyraldehyde,"InChI=1S/C4H8O/c1-2-3-4-5/h4H,2-3H2,1H3",ZTQSAGDEMFDKMZ-UHFFFAOYSA-N,CCCC=O,-0.1590074228,0.0761537113999999,2,G3,72.107,0.9854,20.971999999999998,5.0,1.0,0.0,1.0,2.0,30.0,0.0,0.0,0.0,0.0,17.07,31.99559947106314,2.4017152226171965,24.82892142331044,High,True
A-3519,2-chloroaniline,"InChI=1S/C6H6ClN/c7-5-3-1-2-4-6(5)8/h1-4H,8H2",AKCRQHGQIJBRMN-UHFFFAOYSA-N,Nc1ccccc1Cl,-1.3575741458,0.1164180675190559,4,G5,127.574,1.9222,35.86440000000001,8.0,1.0,1.0,2.0,0.0,42.0,1.0,0.0,0.0,1.0,26.02,53.07456004339135,3.134861511345448,164.63833891467198,High,True
A-3527,6-pent-3-en-1-yltetrahydro-2H-pyran-2-one,"InChI=1S/C10H16O2/c1-2-3-4-6-9-7-5-8-10(11)12-9/h2-3,9H,4-8H2,1H3/b3-2+",NBCMACYORPIYNY-NSCUHMNNSA-N,C/C=C/CCC1CCCC(=O)O1,-1.4887262913,0.0146101022499999,2,G3,168.236,2.438400000000001,47.779000000000025,12.0,2.0,0.0,2.0,3.0,68.0,0.0,1.0,1.0,1.0,26.3,73.60336320123618,2.179877272903438,172.67739285527475,High,True
A-3542,toluenesulphonamide,"InChI=1S/C7H9NO2S/c1-6-4-2-3-5-7(6)11(8,9)10/h2-5H,1H3,(H2,8,9,10)",YCMLQMDWSXFTIF-UHFFFAOYSA-N,Cc1ccccc1[S](N)(=O)=O,-1.5259868531,0.2517250967,2,G3,171.22099999999998,0.6424200000000001,42.55220000000001,11.0,2.0,1.0,4.0,1.0,60.0,1.0,0.0,0.0,1.0,60.16,65.89701182332136,3.3721948109608206,356.4582525456591,High,True
A-3547,3-(trifluoromethyl)aniline,"InChI=1S/C7H6F3N/c8-7(9,10)5-2-1-3-6(11)4-5/h1-4H,11H2",VIUDTWATMPPKEL-UHFFFAOYSA-N,Nc1cccc(c1)C(F)(F)F,-1.5081956214,0.0331637235631782,4,G5,161.12599999999998,2.2876000000000003,35.856400000000015,11.0,1.0,1.0,4.0,0.0,60.0,1.0,0.0,0.0,1.0,26.02,61.63284213968499,3.059901692217984,254.10775327612677,High,True
A-3548,"4,4'-methylenebis(cyclohexylamine)","InChI=1S/C13H26N2/c14-12-5-1-10(2-6-12)9-11-3-7-13(15)8-4-11/h10-13H,1-9,14-15H2",DZIHTWJGPDVSGE-UHFFFAOYSA-N,NC1CCC(CC1)CC2CCC(N)CC2,-1.6240034803,0.2115472306637847,3,G5,210.36499999999995,2.4115,64.48380000000004,15.0,2.0,2.0,2.0,2.0,88.0,0.0,2.0,2.0,2.0,52.04,93.78667548755584,1.681234854638506,156.9749743550015,High,True
A-3562,boric acid,InChI=1S/BH3O3/c2-1(3)4/h2-4H,KGBXLFKZBHKPEV-UHFFFAOYSA-N,OB(O)O,-0.0992552152,0.0538698919912063,3,G5,61.83300000000001,-2.0518,12.4104,4.0,3.0,3.0,4.0,0.0,24.0,0.0,0.0,0.0,0.0,60.69,23.684517280895907,2.3237900077244498,8.0,High,True