ID,Name,InChI,InChIKey,SMILES,Solubility,SD,Ocurrences,Group,MolWt,MolLogP,MolMR,HeavyAtomCount,NumHAcceptors,NumHDonors,NumHeteroatoms,NumRotatableBonds,NumValenceElectrons,NumAromaticRings,NumSaturatedRings,NumAliphaticRings,RingCount,TPSA,LabuteASA,BalabanJ,BertzCT,bin,is_sol
H-545,dialifos,"InChI=1S/C14H17ClNO4PS2/c1-3-19-21(22,20-4-2)23-12(9-15)16-13(17)10-7-5-6-8-11(10)14(16)18/h5-8,12H,3-4,9H2,1-2H3",MUMQYXACQUZOFP-UHFFFAOYSA-N,CCOP(=S)(OCC)SC(CCl)N1C(=O)C2=CC=CC=C2C1=O,-5.85,0.24505,2,G3,393.85400000000016,3.878200000000003,96.57800000000005,23.0,6.0,0.0,9.0,8.0,126.0,1.0,0.0,1.0,2.0,55.84,149.12329593089646,2.2686239942524744,612.4193667711982,Low,False
H-553,Digoxin,"InChI=1S/C41H64O14/c1-19-36(47)28(42)15-34(50-19)54-38-21(3)52-35(17-30(38)44)55-37-20(2)51-33(16-29(37)43)53-24-8-10-39(4)23(13-24)6-7-26-27(39)14-31(45)40(5)25(9-11-41(26,40)48)22-12-32(46)49-18-22/h12,19-21,23-31,33-38,42-45,47-48H,6-11,13-18H2,1-5H3",LTMHDMANZUZIPE-UHFFFAOYSA-N,CC1OC(OC2C(O)CC(OC3C(O)CC(OC4CCC5(C)C(CCC6C5CC(O)C5(C)C(C7=CC(=O)OC7)CCC65O)C4)OC3C)OC2C)CC(O)C1O,-4.16,0.1586407541865861,3,G5,780.9490000000002,2.218100000000003,192.6107999999994,55.0,14.0,6.0,14.0,7.0,312.0,0.0,7.0,8.0,8.0,203.06,323.3224245630436,0.8374981988041249,1409.0037418555949,Medium,False
H-556,b-Endosulfan,"InChI=1S/C9H6Cl6O3S/c10-5-6(11)8(13)4-2-18-19(16)17-1-3(4)7(5,12)9(8,14)15/h3-4H,1-2H2",RDYMFSUJUZBWLH-UHFFFAOYSA-N,O=S1OCC2C(CO1)C1(Cl)C(Cl)=C(Cl)C2(Cl)C1(Cl)Cl,-6.08,0.0902043790511303,4,G5,406.9290000000001,3.689800000000001,77.36340000000001,19.0,3.0,0.0,10.0,0.0,108.0,0.0,2.0,3.0,3.0,35.53,141.7906412262262,2.187726044332392,470.1834139056276,Low,False
H-569,Parathion,"InChI=1S/C10H14NO5PS/c1-3-14-17(18,15-4-2)16-10-7-5-9(6-8-10)11(12)13/h5-8H,3-4H2,1-2H3",LCCNCVORNKJIRZ-UHFFFAOYSA-N,CCOP(=S)(OCC)OC1=CC=C(C=C1)[N+](=O)[O-],-4.29,0.2448302511435218,4,G5,291.26500000000004,3.2711000000000023,71.26140000000002,18.0,6.0,0.0,8.0,7.0,100.0,1.0,0.0,0.0,1.0,70.83,110.26471109131684,2.809298823967879,440.0861904749746,Medium,False
H-570,Pebulate,"InChI=1S/C10H21NOS/c1-4-7-8-11(6-3)10(12)13-9-5-2/h4-9H2,1-3H3",SGEJQUSYQTVSIU-UHFFFAOYSA-N,CCCCN(CC)C(=O)SCCC,-3.41,0.0835560141462001,4,G5,203.351,3.3716000000000026,60.30000000000004,13.0,2.0,0.0,3.0,6.0,78.0,0.0,0.0,0.0,0.0,20.31,86.06819585301139,3.70553036903024,138.88643538696058,High,True
H-572,Perthane,"InChI=1S/C18H20Cl2/c1-3-13-5-9-15(10-6-13)17(18(19)20)16-11-7-14(4-2)8-12-16/h5-12,17-18H,3-4H2,1-2H3",QFMDFTQOJHFVNR-UHFFFAOYSA-N,CCC1=CC=C(C(C2=CC=C(CC)C=C2)C(Cl)Cl)C=C1,-7.04,0.2762500000000001,2,G3,307.264,5.747000000000004,88.97700000000005,20.0,0.0,0.0,2.0,5.0,106.0,2.0,0.0,0.0,2.0,0.0,131.28468246570398,2.3332777784938163,478.8496098708157,Low,False
H-574,Prasterone,"InChI=1S/C19H28O2/c1-18-9-7-13(20)11-12(18)3-4-14-15-5-6-17(21)19(15,2)10-8-16(14)18/h3,13-16,20H,4-11H2,1-2H3",FMGSKLZLMKYGDP-UHFFFAOYSA-N,CC12CCC3C(CC=C4CC(O)CCC43C)C1CCC2=O,-4.01,0.1961292091114086,3,G5,288.43100000000004,3.879200000000002,82.71680000000005,21.0,2.0,1.0,2.0,0.0,116.0,0.0,3.0,4.0,4.0,37.3,127.55103729290713,1.692354659363723,507.69574308017087,Medium,False
I-6,acetazolamide,"InChI=1S/C4H6N4O3S2/c1-2(9)6-3-7-8-4(12-3)13(5,10)11/h1H3,(H2,5,10,11)(H,6,7,9)",BZKPWHYZMXOIDC-UHFFFAOYSA-N,S(=O)(=O)(N)c1sc(NC(=O)C)nn1,-2.44,0.0592309228547236,3,G5,222.251,-0.8561000000000003,45.5859,13.0,6.0,2.0,9.0,2.0,72.0,1.0,0.0,0.0,1.0,115.04,78.02145102207903,2.938691458826852,422.3524682639893,High,True
I-9,amitryptyline,"InChI=1S/C20H23N/c1-21(2)15-7-12-20-18-10-5-3-8-16(18)13-14-17-9-4-6-11-19(17)20/h3-6,8-12H,7,13-15H2,1-2H3",KRMDCWKBEZIMAB-UHFFFAOYSA-N,CN(C)CC\C=C1\c2ccccc2CCc2ccccc12,-4.55,0.04705,2,G3,277.411,4.168600000000003,90.54200000000006,21.0,1.0,0.0,1.0,3.0,108.0,2.0,0.0,1.0,3.0,3.24,127.47243372522377,2.0659497027232017,602.8929198710237,Low,False
I-20,chlorpromazine,"InChI=1S/C17H19ClN2S/c1-19(2)10-5-11-20-14-6-3-4-7-16(14)21-17-9-8-13(18)12-15(17)20/h3-4,6-9,12H,5,10-11H2,1-2H3",ZPEIMTDSQAKGNT-UHFFFAOYSA-N,c1c(Cl)ccc2Sc3ccccc3N(CCCN(C)C)c12,-5.07,0.0363941692521696,3,G5,318.8730000000001,4.8944000000000045,92.19400000000006,21.0,3.0,0.0,4.0,4.0,110.0,2.0,0.0,1.0,3.0,6.48,135.2534203366685,1.9437632658356157,642.4372765270095,Low,False
I-21,chlorpropamide,"InChI=1S/C10H13ClN2O3S/c1-2-7-12-10(14)13-17(15,16)9-5-3-8(11)4-6-9/h3-6H,2,7H2,1H3,(H2,12,13,14)",RKWGIWYCVPQPMF-UHFFFAOYSA-N,Clc1ccc(S(=O)(NC(=O)NCCC)=O)cc1,-3.25,0.10975,2,G3,276.74499999999995,1.7379,65.46320000000003,17.0,3.0,2.0,7.0,4.0,94.0,1.0,0.0,0.0,1.0,75.27000000000001,105.21646016364,2.750346436287121,484.777403699292,High,True
I-24,chlorzoxazone,"InChI=1S/C7H4ClNO2/c8-4-1-2-6-5(3-4)9-7(10)11-6/h1-3H,(H,9,10)",TZFWDZFKRBELIQ-UHFFFAOYSA-N,c1cc2c(cc1Cl)[nH]c(=O)o2,-2.66,0.0849999999999999,2,G3,169.56699999999998,1.7744999999999995,41.8447,11.0,2.0,1.0,4.0,0.0,56.0,2.0,0.0,0.0,2.0,46.0,66.59183322318094,2.920939354744553,442.88245407860506,High,True
I-33,diltiazem,"InChI=1S/C22H26N2O4S/c1-15(25)28-20-21(16-9-11-17(27-4)12-10-16)29-19-8-6-5-7-18(19)24(22(20)26)14-13-23(2)3/h5-12,20-21H,13-14H2,1-4H3/t20-,21+/m1/s1",HSUGRBWQSSZJOP-RTWAWAEBSA-N,O=C1[C@H](OC(C)=O)[C@H](c2ccc(OC)cc2)Sc2ccccc2N1CCN(C)C,-3.16,0.1049500000000001,2,G3,414.5270000000002,3.368500000000002,114.49500000000008,29.0,6.0,0.0,7.0,6.0,154.0,2.0,0.0,1.0,3.0,59.08000000000001,175.3249993408712,2.055852318919889,869.370915000003,High,True
I-37,famotidine,"InChI=1S/C8H15N7O2S3/c9-6(15-20(12,16)17)1-2-18-3-5-4-19-8(13-5)14-7(10)11/h4H,1-3H2,(H2,9,15)(H2,12,16,17)(H4,10,11,13,14)",XUFQPHANEAPEMJ-UHFFFAOYSA-N,N\C(CCSCc1csc(\N=C(\N)N)n1)=N\S(=O)(N)=O,-2.65,0.165,2,G3,337.4560000000001,-0.767999999999998,83.0924,20.0,6.0,4.0,12.0,7.0,112.0,1.0,0.0,0.0,1.0,175.82999999999998,124.28559613101793,2.366985109789652,603.3416169759435,High,True
I-45,hydroflumethiazide,"InChI=1S/C8H8F3N3O4S2/c9-8(10,11)4-1-5-7(2-6(4)19(12,15)16)20(17,18)14-3-13-5/h1-2,13-14H,3H2,(H2,12,15,16)",DMDGGSIALPNSEE-UHFFFAOYSA-N,S1(=O)(=O)NCNc2c1cc(S(=O)(N)=O)c(c2)C(F)(F)F,-2.97,0.0365499999999998,2,G3,331.297,0.0141000000000001,61.6284,20.0,5.0,3.0,12.0,1.0,112.0,1.0,0.0,1.0,2.0,118.36,111.6132292525986,2.86773879182791,770.8922156146341,High,True
I-54,nalidixic_acid,"InChI=1S/C12H12N2O3/c1-3-14-6-9(12(16)17)10(15)8-5-4-7(2)13-11(8)14/h4-6H,3H2,1-2H3,(H,16,17)",MHWLWQUZZRMNGJ-UHFFFAOYSA-N,CCn1cc(c(=O)c2ccc(nc12)C)C(=O)O,-3.61,0.2058320836669218,3,G5,232.239,1.42302,63.373300000000015,17.0,4.0,1.0,5.0,2.0,88.0,2.0,0.0,0.0,2.0,72.19,97.33938150959052,2.946743972758102,658.5837076111416,High,True
I-66,phenobarbital,"InChI=1S/C12H12N2O3/c1-2-12(8-6-4-3-5-7-8)9(15)13-11(17)14-10(12)16/h3-7H,2H2,1H3,(H2,13,14,15,16,17)",DDBREPKUVSBGFI-UHFFFAOYSA-N,C1(NC(C(c2ccccc2)(C(=O)N1)CC)=O)=O,-2.29,0.0956697318904992,5,G5,232.23899999999995,0.7003999999999995,60.092400000000026,17.0,3.0,2.0,5.0,2.0,88.0,1.0,1.0,1.0,2.0,75.27000000000001,98.19951531969478,2.535973053206109,461.78392534517104,High,True
I-70,pindolol,"InChI=1S/C14H20N2O2/c1-10(2)16-8-11(17)9-18-14-5-3-4-13-12(14)6-7-15-13/h3-7,10-11,15-17H,8-9H2,1-2H3",JZQKKSLKJUAGIC-UHFFFAOYSA-N,CC(C)NCC(O)COc1cccc2[nH]ccc12,-3.79,0.0946337971105226,3,G5,248.326,1.9055999999999995,72.93920000000004,18.0,3.0,3.0,4.0,6.0,98.0,2.0,0.0,0.0,2.0,57.28,106.96952192393704,1.914309542148051,493.2545779023449,Medium,False
I-72,procaine,"InChI=1S/C13H20N2O2/c1-3-15(4-2)9-10-17-13(16)11-5-7-12(14)8-6-11/h5-8H,3-4,9-10,14H2,1-2H3",MFDFERRIHVXMIY-UHFFFAOYSA-N,Nc1ccc(C(OCCN(CC)CC)=O)cc1,-1.72,0.3163883323939112,4,G5,236.315,1.7674,68.92490000000004,17.0,4.0,1.0,4.0,6.0,94.0,1.0,0.0,0.0,1.0,55.56,102.36078961703996,2.3694575785961214,344.94202439465573,High,True
I-76,sarafloxacin,"InChI=1S/C20H17F2N3O3/c21-12-1-3-13(4-2-12)25-11-15(20(27)28)19(26)14-9-16(22)18(10-17(14)25)24-7-5-23-6-8-24/h1-4,9-11,23H,5-8H2,(H,27,28)",XBHBWNFJWIASRO-UHFFFAOYSA-N,C1CN(CCN1)c1c(cc2c(n(cc(C(=O)O)c2=O)c2ccc(cc2)F)c1)F,-3.13,0.0050000000000001,2,G3,385.37000000000006,2.3767000000000005,101.503,28.0,5.0,2.0,8.0,3.0,144.0,3.0,1.0,1.0,4.0,74.57,158.17670535523928,2.0131648557301696,1120.2294594201444,High,True
I-79,sulfamethazine,"InChI=1S/C12H14N4O2S/c1-8-7-9(2)15-12(14-8)16-19(17,18)11-5-3-10(13)4-6-11/h3-7H,13H2,1-2H3,(H,14,15,16)",ASWVTGNCAZCNNR-UHFFFAOYSA-N,S(=O)(=O)(Nc1nc(C)cc(n1)C)c1ccc(N)cc1,-2.73,0.23075,2,G3,278.337,1.47644,73.16890000000002,19.0,5.0,2.0,7.0,3.0,100.0,2.0,0.0,0.0,2.0,97.97,111.30820628928308,2.330509006052534,675.9193645265302,High,True
I-83,sulindac_form_II,"InChI=1S/C20H17FO3S/c1-12-17(9-13-3-6-15(7-4-13)25(2)24)16-8-5-14(21)10-19(16)18(12)11-20(22)23/h3-10H,11H2,1-2H3,(H,22,23)/b17-9+",MLKXDPUZXIRXEP-RQZCQDPDSA-N,CC1=C(CC(O)=O)c2cc(F)ccc2C\1=C\c1ccc(cc1)S(C)=O,-4.5,0.4099999999999999,2,G3,356.41800000000006,4.365500000000004,97.89220000000005,25.0,2.0,1.0,5.0,4.0,128.0,2.0,0.0,1.0,3.0,54.37,147.5185424815781,2.1011120578982485,939.9136691174384,Medium,False
I-86,thymol,"InChI=1S/C10H14O/c1-7(2)9-5-4-8(3)6-10(9)11/h4-7,11H,1-3H3",MGSRCZKZVOBKFT-UHFFFAOYSA-N,c1(cc(ccc1C(C)C)C)O,-2.19,0.0192218129134242,3,G5,150.221,2.8240200000000013,46.93280000000003,11.0,1.0,1.0,1.0,1.0,60.0,1.0,0.0,0.0,1.0,20.23,67.6854053292794,3.092719758380193,251.04973178598337,High,True
I-94,warfarin,"InChI=1S/C19H16O4/c1-12(20)11-15(13-7-3-2-4-8-13)17-18(21)14-9-5-6-10-16(14)23-19(17)22/h2-10,15,21H,11H2,1H3",PJVWKTKQMONHTI-UHFFFAOYSA-N,CC(=O)CC(c1ccccc1)c1c(O)c2ccccc2oc1=O,-4.78,0.4505058884804455,3,G5,308.3330000000001,3.609600000000003,87.73180000000005,23.0,4.0,1.0,4.0,4.0,116.0,3.0,0.0,0.0,3.0,67.50999999999999,132.5520250911752,2.258072467553032,909.550972694472,Low,False