ID,Name,InChI,InChIKey,SMILES,Solubility,SD,Ocurrences,Group,MolWt,MolLogP,MolMR,HeavyAtomCount,NumHAcceptors,NumHDonors,NumHeteroatoms,NumRotatableBonds,NumValenceElectrons,NumAromaticRings,NumSaturatedRings,NumAliphaticRings,RingCount,TPSA,LabuteASA,BalabanJ,BertzCT,bin,is_sol
F-607,"2-(2,4,5-trichlorophenoxy)propanoic acid","InChI=1S/C9H7Cl3O3/c1-4(9(13)14)15-8-3-6(11)5(10)2-7(8)12/h2-4H,1H3,(H,13,14)",ZLSWBLPERHFHIS-UHFFFAOYSA-N,CC(OC1=C(Cl)C=C(Cl)C(Cl)=C1)C(=O)O,-3.55,0.01465,2,G3,269.511,3.4987000000000013,59.197800000000015,15.0,2.0,1.0,6.0,3.0,82.0,1.0,0.0,0.0,1.0,46.53,101.50532922507848,2.952681123248563,392.4341135811158,High,True
F-614,"4-(3,6-dihydroxy-10,13-dimethyl-2,3,4,5,6,7,8,9,11,12,14,15,16,17-tetradecahydro-1H-cyclopenta[a]phenanthren-17-yl)pentanoic acid","InChI=1S/C24H40O4/c1-14(4-7-22(27)28)17-5-6-18-16-13-21(26)20-12-15(25)8-10-24(20,3)19(16)9-11-23(17,18)2/h14-21,25-26H,4-13H2,1-3H3,(H,27,28)",DGABKXLVXPYZII-UHFFFAOYSA-N,CC(CCC(=O)O)C1CCC2C3CC(O)C4CC(O)CCC4(C)C3CCC12C,-4.82,0.0349999999999997,2,G3,392.5800000000002,4.477900000000004,108.64740000000008,28.0,3.0,3.0,4.0,4.0,160.0,0.0,4.0,4.0,4.0,77.76,169.65381840146642,1.545749264394475,605.412568486979,Low,False
F-780,1-(propan-2-ylamino)-3-(2-prop-2-enylphenoxy)propan-2-ol,"InChI=1S/C15H23NO2/c1-4-7-13-8-5-6-9-15(13)18-11-14(17)10-16-12(2)3/h4-6,8-9,12,14,16-17H,1,7,10-11H2,2-3H3",PAZJSJFMUHDSTF-UHFFFAOYSA-N,C=CCC1=C(OCC(O)CNC(C)C)C=CC=C1,-2.88,0.125,2,G3,249.354,2.1528,74.98350000000005,18.0,3.0,2.0,3.0,8.0,100.0,1.0,0.0,0.0,1.0,41.49,109.48392028219313,2.4441362532698547,363.266163521068,High,True
F-796,"O3-ethyl O5-methyl 4-(2,3-dichlorophenyl)-2,6-dimethyl-1,4-dihydropyridine-3,5-dicarboxylate","InChI=1S/C18H19Cl2NO4/c1-5-25-18(23)14-10(3)21-9(2)13(17(22)24-4)15(14)11-7-6-8-12(19)16(11)20/h6-8,15,21H,5H2,1-4H3",RZTAMFZIAATZDJ-UHFFFAOYSA-N,CCOC(=O)C1=C(C)NC(C)=C(C(=O)OC)C1C1=C(Cl)C(Cl)=CC=C1,-5.68,0.4399999999999999,2,G3,384.259,3.9643000000000015,96.3877,25.0,5.0,1.0,7.0,4.0,134.0,1.0,0.0,1.0,2.0,64.63,156.13220057083117,2.738931060348321,783.2807861577601,Low,False
F-828,2-[1-(4-chlorobenzoyl)-5-methoxy-2-methylindol-3-yl]acetic acid,"InChI=1S/C19H16ClNO4/c1-11-15(10-18(22)23)16-9-14(25-2)7-8-17(16)21(11)19(24)12-3-5-13(20)6-4-12/h3-9H,10H2,1-2H3,(H,22,23)",CGIGDMFJXJATDK-UHFFFAOYSA-N,COC1=CC2=C(C=C1)N(C(=O)C1=CC=C(Cl)C=C1)C(C)=C2CC(=O)O,-4.77,0.422456280446733,3,G5,357.7930000000002,3.927320000000004,95.74730000000004,25.0,4.0,1.0,6.0,4.0,128.0,3.0,0.0,0.0,3.0,68.53,148.94809374556095,2.2323717333782787,973.247930443042,Low,False
F-840,2-[4-(2-hydroxyethoxy)phenoxy]ethanol,"InChI=1S/C10H14O4/c11-5-7-13-9-1-2-10(4-3-9)14-8-6-12/h1-4,11-12H,5-8H2",WTPYFJNYAMXZJG-UHFFFAOYSA-N,OCCOC1=CC=C(OCCO)C=C1,-1.23,0.0250641028999999,2,G3,198.218,0.4287999999999999,51.60360000000004,14.0,4.0,2.0,4.0,6.0,78.0,1.0,0.0,0.0,1.0,58.92,82.70672954048919,2.419479246494691,217.80384039194297,High,True
F-955,"4-hydroxy-7,7-dioxo-5,6-dihydro-4H-thieno[5,4-b]thiopyran-2-sulfonamide","InChI=1S/C7H9NO5S3/c8-16(12,13)6-3-4-5(9)1-2-15(10,11)7(4)14-6/h3,5,9H,1-2H2,(H2,8,12,13)",MAZCFXDIYXGRAD-UHFFFAOYSA-N,NS(=O)(=O)C1=CC2=C(S1)S(=O)(=O)CCC2O,-1.65,0.1449999999999999,2,G3,283.352,-0.3936999999999994,57.32180000000001,16.0,6.0,2.0,9.0,1.0,90.0,1.0,0.0,1.0,2.0,114.53000000000002,96.68106030297945,2.7116001028609293,626.9796171728123,High,True
F-959,2-amino-3-(2-amino-3-hydroxy-3-oxopropyl)disulfanylpropanoic acid,"InChI=1S/C6H12N2O4S2/c7-3(5(9)10)1-13-14-2-4(8)6(11)12/h3-4H,1-2,7-8H2,(H,9,10)(H,11,12)",LEVWYRKDKASIDU-UHFFFAOYSA-N,NC(CSSCC(N)C(=O)O)C(=O)O,-3.31,0.145,2,G3,240.306,-0.8083999999999993,56.1384,14.0,6.0,4.0,8.0,7.0,82.0,0.0,0.0,0.0,0.0,126.64,88.80143683539772,3.46817939585112,192.00818512452065,High,True
F-980,2-(2-methyl-5-nitroimidazol-1-yl)ethanol,"InChI=1S/C6H9N3O3/c1-5-7-4-6(9(11)12)8(5)2-3-10/h4,10H,2-3H2,1H3",VAOCPAMSLUNLGC-UHFFFAOYSA-N,CC1=NC=C(N1CCO)[N+](=O)[O-],-1.21,0.0305240376588681,4,G5,171.15599999999998,0.0920199999999998,40.704200000000014,12.0,5.0,1.0,6.0,3.0,66.0,1.0,0.0,0.0,1.0,81.19,68.61221882593873,3.032858934158134,294.2284590462867,High,True
F-981,"6-chloro-N'-ethyl-N-propan-2-yl-1,3,5-triazine-2,4-diamine","InChI=1S/C8H14ClN5/c1-4-10-7-12-6(9)13-8(14-7)11-5(2)3/h5H,4H2,1-3H3,(H2,10,11,12,13,14)",MXWJVTOOROXGIU-UHFFFAOYSA-N,CCNC1=NC(Cl)=NC(NC(C)C)=N1,-3.76,0.1427217597683961,5,G5,215.688,1.7770999999999997,57.75940000000002,14.0,5.0,2.0,6.0,4.0,78.0,1.0,0.0,0.0,1.0,62.73,88.3180482284173,2.831956367804246,301.78315486014867,Medium,False
F-990,N-(phenylmethyl)-7H-purin-6-amine,"InChI=1S/C12H11N5/c1-2-4-9(5-3-1)6-13-11-10-12(15-7-14-10)17-8-16-11/h1-5,7-8H,6H2,(H2,13,14,15,16,17)",NWBJYWHLCVSVIJ-UHFFFAOYSA-N,C1=CC=C(CNC2=NC=NC3=C2N=CN3)C=C1,-3.6,0.01275,2,G3,225.255,1.9649999999999996,65.45240000000001,17.0,4.0,2.0,5.0,3.0,84.0,3.0,0.0,0.0,3.0,66.49000000000001,97.95307051915468,1.835032919816936,616.8870873053712,High,True
F-995,"5-ethyl-8-oxo-[1,3]dioxolo[4,5-g]quinoline-7-carboxylic acid","InChI=1S/C13H11NO5/c1-2-14-5-8(13(16)17)12(15)7-3-10-11(4-9(7)14)19-6-18-10/h3-5H,2,6H2,1H3,(H,16,17)",KYGZCKSPAKDVKC-UHFFFAOYSA-N,CCN1C=C(C(=O)O)C(=O)C2=C1C=C1OCOC1=C2,-4.38,0.2659500000000001,2,G3,261.23299999999995,1.4483,66.96430000000002,19.0,5.0,1.0,6.0,2.0,98.0,2.0,0.0,1.0,3.0,77.76,107.34099283412854,2.4291003376651457,746.7624788594738,Medium,False
F-1023,"[2,5-dioxo-4,4-di(phenyl)imidazolidin-1-yl]methyl butanoate","InChI=1S/C20H20N2O4/c1-2-9-17(23)26-14-22-18(24)20(21-19(22)25,15-10-5-3-6-11-15)16-12-7-4-8-13-16/h3-8,10-13H,2,9,14H2,1H3,(H,21,25)",UPQWMVAELITTGQ-UHFFFAOYSA-N,CCCC(=O)OCN1C(=O)NC(C2=CC=CC=C2)(C2=CC=CC=C2)C1=O,-4.68,0.1950000000000002,2,G3,352.3900000000001,2.782800000000001,94.90870000000004,26.0,4.0,1.0,6.0,6.0,134.0,2.0,1.0,1.0,3.0,75.71000000000001,151.31001047065425,1.972696317413568,765.575598585974,Low,False
F-1053,ethyl 2-(6-methoxynaphthalen-2-yl)propanoate,"InChI=1S/C16H18O3/c1-4-19-16(17)11(2)12-5-6-14-10-15(18-3)8-7-13(14)9-12/h5-11H,4H2,1-3H3",URNAYRDBUUZOIU-UHFFFAOYSA-N,CCOC(=O)C(C)C1=CC2=CC=C(OC)C=C2C=C1,-5.24,0.0449999999999999,2,G3,258.31699999999995,3.5150000000000023,75.54800000000004,19.0,3.0,0.0,3.0,4.0,100.0,2.0,0.0,0.0,2.0,35.53,112.69133289666937,2.334285128814113,589.5637814598563,Low,False
F-1095,2-methyl-4-(2-methylphenyl)diazenylaniline,"InChI=1S/C14H15N3/c1-10-5-3-4-6-14(10)17-16-12-7-8-13(15)11(2)9-12/h3-9H,15H2,1-2H3",PFRYFZZSECNQOL-UHFFFAOYSA-N,CC1=C(N)C=CC(N=NC2=C(C)C=CC=C2)=C1,-4.05,0.22885,2,G3,225.295,4.301040000000002,70.94640000000003,17.0,3.0,1.0,3.0,2.0,86.0,2.0,0.0,0.0,2.0,50.74,101.00505009585603,2.2627258972121216,559.1438223871523,Medium,False
F-1105,"7-chloro-1-methyl-5-phenyl-3H-1,4-benzodiazepin-2-one","InChI=1S/C16H13ClN2O/c1-19-14-8-7-12(17)9-13(14)16(18-10-15(19)20)11-5-3-2-4-6-11/h2-9H,10H2,1H3",AAOVKJBEBIDNHE-UHFFFAOYSA-N,CN1C(=O)CN=C(C2=CC=CC=C2)C2=C1C=CC(Cl)=C2,-3.71,0.0310385065505556,3,G5,284.74600000000004,3.153800000000002,81.81000000000003,20.0,2.0,0.0,4.0,1.0,100.0,2.0,0.0,1.0,3.0,32.67,122.06237911260712,2.2299634444150054,694.8779897536325,Medium,False
F-1109,"5-(2-chlorophenyl)-7-nitro-1,3-dihydro-1,4-benzodiazepin-2-one","InChI=1S/C15H10ClN3O3/c16-12-4-2-1-3-10(12)15-11-7-9(19(21)22)5-6-13(11)18-14(20)8-17-15/h1-7H,8H2,(H,18,20)",DGBIGWXXNGSACT-UHFFFAOYSA-N,C1C(=O)NC2=C(C=C(C=C2)[N+](=O)[O-])C(=N1)C3=CC=CC=C3Cl,-4.41,0.4553500000000001,2,G3,315.716,3.037700000000002,83.68410000000002,22.0,4.0,1.0,7.0,2.0,110.0,2.0,0.0,1.0,3.0,84.6,130.14044123411497,2.233599180243165,817.4300132341531,Medium,False
F-1137,4-chloro-2-(furan-2-ylmethylamino)-5-sulfamoylbenzoic acid,"InChI=1S/C12H11ClN2O5S/c13-9-5-10(15-6-7-2-1-3-20-7)8(12(16)17)4-11(9)21(14,18)19/h1-5,15H,6H2,(H,16,17)(H2,14,18,19)",ZZUFCTLCJUWOSV-UHFFFAOYSA-N,NS(=O)(=O)C1=C(Cl)C=C(NCC2=CC=CO2)C(C(=O)O)=C1,-3.83,0.336286703077399,3,G5,330.7490000000001,1.8907000000000005,75.81920000000002,21.0,5.0,3.0,9.0,5.0,112.0,2.0,0.0,0.0,2.0,122.63,124.92226167058836,2.4066257491277265,771.1955159056122,Medium,False
F-1142,"5-ethyl-5-phenylimidazolidine-2,4-dione","InChI=1S/C11H12N2O2/c1-2-11(8-6-4-3-5-7-8)9(14)12-10(15)13-11/h3-7H,2H2,1H3,(H2,12,13,14,15)",UDTWZFJEMMUFLC-UHFFFAOYSA-N,CCC1(C2=CC=CC=C2)NC(=O)NC1=O,-2.64,0.2349000000000001,2,G3,204.229,1.1313,55.08540000000002,15.0,2.0,2.0,4.0,2.0,78.0,1.0,1.0,1.0,2.0,58.2,87.67305110525442,2.4690156515518256,402.3087654259664,High,True
F-1146,2-amino-3-(1H-indol-3-yl)propanoic acid,"InChI=1S/C11H12N2O2/c12-9(11(14)15)5-7-6-13-10-4-2-1-3-8(7)10/h1-4,6,9,13H,5,12H2,(H,14,15)",QIVBCDIJIAJPQS-UHFFFAOYSA-N,NC(CC1=CNC2=C1C=CC=C2)C(=O)O,-1.77,0.2935,2,G3,204.229,1.1223,57.613900000000015,15.0,2.0,3.0,4.0,3.0,78.0,2.0,0.0,0.0,2.0,79.11,86.71270096468882,2.323487371389896,490.0485079143074,High,True
F-1148,"5-ethyl-5-pentan-2-yl-1,3-diazinane-2,4,6-trione","InChI=1S/C11H18N2O3/c1-4-6-7(3)11(5-2)8(14)12-10(16)13-9(11)15/h7H,4-6H2,1-3H3,(H2,12,13,14,15,16)",WEXRUCMBJFQVBZ-UHFFFAOYSA-N,CCCC(C)C1(CC)C(=O)NC(=O)NC1=O,-2.39,0.0651347492169544,3,G5,226.276,1.1849999999999998,58.47740000000003,16.0,3.0,2.0,5.0,4.0,90.0,0.0,1.0,1.0,1.0,75.27000000000001,94.9671316856138,3.0460336908423664,305.19136469282626,High,True
F-1193,4-phenyldiazenylphenol,"InChI=1S/C12H10N2O/c15-12-8-6-11(7-9-12)14-13-10-4-2-1-3-5-10/h1-9,15H",BEYOBVMPDRKTNR-UHFFFAOYSA-N,OC1=CC=C(N=NC2=CC=CC=C2)C=C1,-3.95,0.3050000000000001,2,G3,198.22500000000005,3.8076000000000025,58.72480000000003,15.0,3.0,1.0,3.0,2.0,74.0,2.0,0.0,0.0,2.0,44.95,87.7295089222461,2.1529892819390986,448.8081523848772,Medium,False
F-1194,"4-phenyldiazenylbenzene-1,3-diol","InChI=1S/C12H10N2O2/c15-10-6-7-11(12(16)8-10)14-13-9-4-2-1-3-5-9/h1-8,15-16H",BPTKLSBRRJFNHJ-UHFFFAOYSA-N,OC1=CC(O)=C(N=NC2=CC=CC=C2)C=C1,-3.08,0.0250000000000001,2,G3,214.22400000000005,3.513200000000002,60.38960000000004,16.0,4.0,2.0,4.0,2.0,80.0,2.0,0.0,0.0,2.0,65.18,92.52374267444212,2.242151986538292,509.682139382656,High,True
F-1199,"3,3-dimethyl-7-oxo-6-[[2-(phenoxy)acetyl]amino]-4-thia-1-azabicyclo[3.2.0]heptane-2-carboxylic acid","InChI=1S/C16H18N2O5S/c1-16(2)12(15(21)22)18-13(20)11(14(18)24-16)17-10(19)8-23-9-6-4-3-5-7-9/h3-7,11-12,14H,8H2,1-2H3,(H,17,19)(H,21,22)",BPLBGHOLXOTWMN-UHFFFAOYSA-N,CC1(C)SC2C(NC(=O)COC3=CC=CC=C3)C(=O)N2C1C(=O)O,-2.81,0.1699999999999999,2,G3,350.3960000000001,0.6970999999999998,87.59550000000004,24.0,5.0,2.0,8.0,5.0,128.0,1.0,2.0,2.0,3.0,95.94,142.8943131174155,1.585949621534698,678.305160116001,High,True
G-14,"1,2,4,5-Tetrabromobenzene",InChI=1S/C6H2Br4/c7-3-1-4(8)6(10)2-5(3)9/h1-2H,QCKHVNQHBOGZER-UHFFFAOYSA-N,Brc1cc(Br)c(Br)cc1Br,-6.98,0.0065499999999998,2,G3,393.698,4.7366,57.242,10.0,0.0,0.0,4.0,0.0,54.0,1.0,0.0,0.0,1.0,0.0,92.9015935420624,3.2824629074535228,205.9198833722299,Low,False
G-26,"1,2-Dichlorotetrafluoroethane","InChI=1S/C2Cl2F4/c3-1(5,6)2(4,7)8",DDMOUSALMHHKOS-UHFFFAOYSA-N,FC(F)(Cl)C(F)(F)Cl,-2.74,0.1893999999999998,2,G3,170.92000000000002,2.6495999999999995,21.6,8.0,0.0,0.0,6.0,1.0,50.0,0.0,0.0,0.0,0.0,0.0,52.37286720769444,4.020391543176799,67.01955000865388,High,True
G-56,"1,8-Cineole","InChI=1S/C10H18O/c1-9(2)8-4-6-10(3,11-9)7-5-8/h8H,4-7H2,1-3H3",WEEGYLXZBRQIMU-UHFFFAOYSA-N,CC12CCC(CC1)C(C)(C)O2,-1.74,0.0906687377214438,4,G5,154.253,2.7441000000000013,45.52700000000002,11.0,1.0,0.0,1.0,0.0,64.0,0.0,3.0,3.0,3.0,9.23,69.12561297984745,2.2239918531978677,160.9567031494677,High,True
G-68,1-Butene,"InChI=1S/C4H8/c1-3-4-2/h3H,1,4H2,2H3",VXNZUUAINFGPBY-UHFFFAOYSA-N,CCC=C,-1.94,0.23133590695,2,G3,56.108,1.5824,20.488,4.0,0.0,0.0,0.0,1.0,24.0,0.0,0.0,0.0,0.0,0.0,27.14447433883512,2.2968352619191386,14.0,High,True
G-79,1-Decene,"InChI=1S/C10H20/c1-3-5-7-9-10-8-6-4-2/h3H,1,4-10H2,2H3",AFFLGGQVNFXPEV-UHFFFAOYSA-N,CCCCCCCCC=C,-5.51,0.331862246180735,3,G5,140.26999999999998,3.923000000000004,48.190000000000026,10.0,0.0,0.0,0.0,7.0,60.0,0.0,0.0,0.0,0.0,0.0,65.33412702521478,2.703789901245323,64.43856189774723,Low,False
G-115,1-Propanol,"InChI=1S/C3H8O/c1-2-3-4/h4H,2-3H2,1H3",BDERNNFJNOPAEC-UHFFFAOYSA-N,CCCO,0.62,0.30055,2,G3,60.096,0.3887,17.376800000000003,4.0,1.0,1.0,1.0,1.0,26.0,0.0,0.0,0.0,0.0,20.23,26.26336900881878,1.9747448713915892,5.245112497836532,High,True
G-117,"2,2',3,3',4,4',5,5',6,6'-PCB",InChI=1S/C12Cl10/c13-3-1(4(14)8(18)11(21)7(3)17)2-5(15)9(19)12(22)10(20)6(2)16,ONXPZLFXDMAPRO-UHFFFAOYSA-N,Clc1c(Cl)c(Cl)c(c(Cl)c1Cl)c2c(Cl)c(Cl)c(Cl)c(Cl)c2Cl ,-11.6,0.3692942939656057,3,G5,498.66200000000026,9.8876,101.978,22.0,0.0,0.0,10.0,1.0,118.0,2.0,0.0,0.0,2.0,0.0,175.52115959437774,3.026914071477952,669.959813936206,Low,False
G-126,"2,2',3,4,5-PCB",InChI=1S/C12H5Cl5/c13-8-3-1-2-6(12(8)17)7-4-10(15)11(16)5-9(7)14/h1-5H,JTUSORDQZVOEAZ-UHFFFAOYSA-N,Clc1cc(Cl)c(cc1Cl)c2cccc(Cl)c2Cl ,-7.21,0.0747499999999998,2,G3,326.437,6.620600000000001,76.92800000000001,17.0,0.0,0.0,5.0,1.0,88.0,2.0,0.0,0.0,2.0,0.0,124.00482845996936,2.685870782385161,577.3489383657761,Low,False
G-127,"2,2',3,4,6-PCB",InChI=1S/C12H5Cl5/c13-6-1-2-7(10(16)5-6)11-8(14)3-4-9(15)12(11)17/h1-5H,CXKIGWXPPVZSQK-UHFFFAOYSA-N,Clc1ccc(c(Cl)c1)c2c(Cl)ccc(Cl)c2Cl ,-7.43,0.1302999999999996,2,G3,326.437,6.620600000000001,76.92800000000003,17.0,0.0,0.0,5.0,1.0,88.0,2.0,0.0,0.0,2.0,0.0,124.00482845996936,2.721523075224645,577.348938365776,Low,False
G-151,"2,3,4,6-Tetrachlorophenol","InChI=1S/C6H2Cl4O/c7-2-1-3(8)6(11)5(10)4(2)9/h1,11H",VGVRPFIJEJYOFN-UHFFFAOYSA-N,Oc1c(Cl)cc(Cl)c(Cl)c1Cl,-3.1,0.4517999999999997,2,G3,231.893,4.005799999999999,48.146800000000006,11.0,1.0,1.0,5.0,0.0,60.0,1.0,0.0,0.0,1.0,20.23,83.43870177921967,3.455546483817784,270.8740242221354,High,True
G-152,"2',3,4-PCB",InChI=1S/C12H7Cl3/c13-9-6-4-8(5-7-9)10-2-1-3-11(14)12(10)15/h1-7H,ZMHWQAHZKUPENF-UHFFFAOYSA-N,Clc1ccc(cc1)c2cccc(Cl)c2Cl ,-6.29,0.0156999999999998,2,G3,257.547,5.313800000000001,66.90800000000002,15.0,0.0,0.0,3.0,1.0,76.0,2.0,0.0,0.0,2.0,0.0,103.398296006206,2.54151459652031,474.7259470533523,Low,False
G-167,"2,4,5-PCB",InChI=1S/C12H7Cl3/c13-9-3-1-8(2-4-9)11-7-10(14)5-6-12(11)15/h1-7H,VAHKBZSAUKPEOV-UHFFFAOYSA-N,Clc1ccc(cc1)c2cc(Cl)ccc2Cl ,-6.27,0.0072499999999999,2,G3,257.547,5.313800000000001,66.90800000000002,15.0,0.0,0.0,3.0,1.0,76.0,2.0,0.0,0.0,2.0,0.0,103.398296006206,2.530594789348171,474.7259470533523,Low,False
G-184,"2,6-Dichlorophenol","InChI=1S/C6H4Cl2O/c7-4-2-1-3-5(8)6(4)9/h1-3,9H",HOLHYSJJBXSLMV-UHFFFAOYSA-N,Oc1c(Cl)cccc1Cl,-1.79,0.0716999999999999,2,G3,163.003,2.699,38.12680000000001,9.0,1.0,1.0,3.0,0.0,48.0,1.0,0.0,0.0,1.0,20.23,62.83216932545633,3.2478347337367035,202.0478870500104,High,True
G-258,2-Propanol,"InChI=1S/C3H8O/c1-3(2)4/h3-4H,1-2H3",KFZMGEQAYNKOFK-UHFFFAOYSA-N,CC(C)O,0.43,0.39555,2,G3,60.096,0.3871,17.354800000000004,4.0,1.0,1.0,1.0,0.0,26.0,0.0,0.0,0.0,0.0,20.23,26.26336900881877,2.3237900077244498,8.0,High,True
G-267,"3,4-Dimethylphenol","InChI=1S/C8H10O/c1-6-3-4-8(9)5-7(6)2/h3-5,9H,1-2H3",YCOXTKKNXUZSKD-UHFFFAOYSA-N,Cc1ccc(O)cc1C,-1.38,0.01467347825,2,G3,122.167,2.00904,37.5808,9.0,1.0,1.0,1.0,0.0,48.0,1.0,0.0,0.0,1.0,20.23,54.9555211004862,3.171678030440915,215.80766205433727,High,True
G-284,3-Hexanoyloxymethylphenyltoin,"InChI=1S/C22H24N2O4/c1-2-3-6-15-19(25)28-16-24-20(26)22(23-21(24)27,17-11-7-4-8-12-17)18-13-9-5-10-14-18/h4-5,7-14H,2-3,6,15-16H2,1H3,(H,23,27)",OLWXRKNZPGNRLT-UHFFFAOYSA-N,O=C1N(COC(=O)CCCCC)C(=O)C(N1)(c2ccccc2)c3ccccc3,-5.886,0.2069999999999998,2,G3,380.444,3.5630000000000024,104.14270000000003,28.0,4.0,1.0,6.0,8.0,146.0,2.0,1.0,1.0,3.0,75.71,164.03989469944744,1.844287084520848,796.6299620703876,Low,False
G-287,3-Methyl-2-butanol,"InChI=1S/C5H12O/c1-4(2)5(3)6/h4-6H,1-3H3",MXLMTQWGSQIYOW-UHFFFAOYSA-N,CC(C)C(C)O,-0.18,0.0084999999999999,2,G3,88.14999999999999,1.0232,26.518799999999988,6.0,1.0,1.0,1.0,1.0,38.0,0.0,0.0,0.0,0.0,20.23,38.99325323761199,2.993497243478473,24.919684538544,High,True
G-289,3-Methyl-2-pentanol,"InChI=1S/C6H14O/c1-3-6(2)4-5-7/h6-7H,3-5H2,1-2H3",IWTBVKIGCDZRPL-UHFFFAOYSA-N,CCC(C)CCO,-0.72,0.3115779945160868,3,G5,102.177,1.4149,31.15779999999998,7.0,1.0,1.0,1.0,3.0,44.0,0.0,0.0,0.0,0.0,20.23,45.35819535200859,2.831819966070785,35.161259458730164,High,True
G-339,5-Ethyl-5-isopropylbarbituric acid,"InChI=1S/C9H14N2O3/c1-4-9(5(2)3)6(12)10-8(14)11-7(9)13/h5H,4H2,1-3H3,(H2,10,11,12,13,14)",HHLXJTDUHFBYAU-UHFFFAOYSA-N,O=C1NC(=O)NC(=O)C1(CC)C(C)C,-2.148,0.0331999999999998,2,G3,198.222,0.4047999999999994,49.24340000000002,14.0,3.0,2.0,5.0,2.0,78.0,0.0,1.0,1.0,1.0,75.27000000000001,82.23724745682054,3.1057980173184867,276.43219213017323,High,True
G-346,5-Nonanone,"InChI=1S/C9H18O/c1-3-5-7-9(10)8-6-4-2/h3-8H2,1-2H3",WSGCRAOTEDLMFQ-UHFFFAOYSA-N,CCCCC(=O)CCCC,-2.58,0.00675,2,G3,142.242,2.935900000000001,44.057000000000016,10.0,1.0,0.0,1.0,6.0,60.0,0.0,0.0,0.0,0.0,17.07,63.82031004304618,3.0863484262353005,76.72905595320057,High,True
G-476,Carbaryl,"InChI=1S/C12H11NO2/c1-13-12(14)15-11-8-4-6-9-5-2-3-7-10(9)11/h2-8H,1H3,(H,13,14)",CVXBEEMKQHEXEN-UHFFFAOYSA-N,CNC(=O)Oc1cccc2ccccc12,-3.224,0.3888840423571015,5,G5,201.225,2.5580000000000007,59.03170000000003,15.0,2.0,1.0,3.0,1.0,76.0,2.0,0.0,0.0,2.0,38.33,87.66788139318408,2.464953756163773,488.4510308012037,High,True
G-495,Chloroacetonitrile,InChI=1S/C2H2ClN/c3-1-2-4/h1H2,RENMDAKOXSCIGH-UHFFFAOYSA-N,ClCC#N,-0.092,0.10705,2,G3,75.498,0.74878,16.333,4.0,1.0,0.0,2.0,0.0,22.0,0.0,0.0,0.0,0.0,23.79,29.800039050576547,2.4330963097956344,35.79319390447952,High,True
G-514,"cis 1,2-Dichloroethylene",InChI=1S/C2H2Cl2/c3-1-2-4/h1-2H/b2-1-,KFUSEUYYWQURPO-UPHRSURJSA-N,Cl\C=C/Cl,-1.3,0.0711999999999999,2,G3,96.94400000000002,1.9352,20.846,4.0,0.0,0.0,2.0,0.0,24.0,0.0,0.0,0.0,0.0,0.0,35.02112256380526,2.549193338482967,19.219280948873624,High,True
G-515,"cis-1,2-Dimethylcyclohexane","InChI=1S/C8H16/c1-7-5-3-4-6-8(7)2/h7-8H,3-6H2,1-2H3",KVZJLSYJROEPSQ-UHFFFAOYSA-N,C/C1CCCCC1\C,-4.3,0.0237234529995578,3,G5,112.216,2.832600000000001,36.79599999999999,8.0,0.0,0.0,0.0,0.0,48.0,0.0,1.0,1.0,1.0,0.0,52.28801467507656,2.2794002709583667,56.43856189774725,Medium,False
G-523,cortisone acetate,"InChI=1S/C23H30O6/c1-13(24)29-12-19(27)23(28)9-7-17-16-5-4-14-10-15(25)6-8-21(14,2)20(16)18(26)11-22(17,23)3/h10,16-17,20,28H,4-9,11-12H2,1-3H3",ITRJWOMZKQRYTA-UHFFFAOYSA-N,CC(=O)OCC(=O)C3(O)CCC4C2CCC1=CC(=O)CCC1(C)C2C(=O)CC34C ,-4.21,0.1290348790056394,4,G5,402.48700000000025,2.560600000000001,103.68980000000006,29.0,6.0,1.0,6.0,3.0,158.0,0.0,3.0,4.0,4.0,97.74,170.60891728013172,1.6645960183635236,827.2246952751074,Medium,False
G-533,Cycloheptene,"InChI=1S/C7H12/c1-2-4-6-7-5-3-1/h1-2H,3-7H2",ZXIJMRYMVAMXQP-UHFFFAOYSA-N,C1CCC=CCC1,-3.18,0.00825,2,G3,96.173,2.5067000000000004,32.22499999999999,7.0,0.0,0.0,0.0,0.0,40.0,0.0,0.0,1.0,1.0,0.0,45.23346952849571,2.202927766407529,54.43856189774725,High,True
G-546,Cyclopentyl-5-spirobarbituric acid,"InChI=1S/C8H10N2O3/c11-5-8(3-1-2-4-8)6(12)10-7(13)9-5/h1-4H2,(H2,9,10,11,12,13)",HYPRUQJUBWRVEM-UHFFFAOYSA-N,O=C2NC(=O)C1(CCCC1)C(=O)N2,-2.349,0.3554999999999999,2,G3,182.179,-0.0872000000000001,42.582400000000014,13.0,3.0,2.0,5.0,0.0,70.0,0.0,2.0,2.0,2.0,75.27,74.86647418889473,2.307979159746949,269.7642645701818,High,True
G-554,Dapsone,"InChI=1S/C12H12N2O2S/c13-9-1-5-11(6-2-9)17(15,16)12-7-3-10(14)4-8-12/h1-8H,13-14H2",MQJKPEGWNLWLTK-UHFFFAOYSA-N,Nc1ccc(cc1)S(=O)(=O)c2ccc(N)cc2,-3.094,0.1798507035169881,3,G5,248.307,1.6838000000000002,67.16060000000002,17.0,4.0,2.0,5.0,2.0,88.0,2.0,0.0,0.0,2.0,86.18,99.79367710137302,2.4961289671937283,565.0601341830188,High,True
G-589,Diethyldisulfide,"InChI=1S/C4H10S2/c1-3-5-6-4-2/h3-4H2,1-2H3",CETBSQOFQKLHHZ-UHFFFAOYSA-N,CCSSCC,-2.42,0.09505,2,G3,122.258,2.4076000000000004,36.264,6.0,2.0,0.0,2.0,3.0,38.0,0.0,0.0,0.0,0.0,0.0,47.48025950809952,2.3390923149762908,17.509775004326936,High,True
G-595,Dihexyl phthalate,"InChI=1S/C20H30O4/c1-3-5-7-11-15-23-19(21)17-13-9-10-14-18(17)20(22)24-16-12-8-6-4-2/h9-10,13-14H,3-8,11-12,15-16H2,1-2H3",KCXZNSGUUQJJTR-UHFFFAOYSA-N,CCCCCCOC(=O)c1ccccc1C(=O)OCCCCCC,-6.144,0.4225450824073886,3,G5,334.45600000000024,5.160800000000005,95.29100000000008,24.0,4.0,0.0,4.0,12.0,134.0,1.0,0.0,0.0,1.0,52.60000000000001,145.09072738015084,2.5016837685957376,451.16714517212966,Low,False