ID,Name,InChI,InChIKey,SMILES,Solubility,SD,Ocurrences,Group,MolWt,MolLogP,MolMR,HeavyAtomCount,NumHAcceptors,NumHDonors,NumHeteroatoms,NumRotatableBonds,NumValenceElectrons,NumAromaticRings,NumSaturatedRings,NumAliphaticRings,RingCount,TPSA,LabuteASA,BalabanJ,BertzCT,bin,is_sol
C-416,"4-(2,4-dichlorophenoxy)butanoic  acid;  2,4-db","InChI=1S/C10H10Cl2O3/c11-7-3-4-9(8(12)6-7)15-5-1-2-10(13)14/h3-4,6H,1-2,5H2,(H,13,14)",YIVXMZJTEQBPQO-UHFFFAOYSA-N,OC(=O)CCCOC1=C(Cl)C=C(Cl)C=C1,-3.57,0.05105,2,G3,249.093,3.237000000000002,58.82680000000003,15.0,2.0,1.0,5.0,5.0,82.0,1.0,0.0,0.0,1.0,46.53,97.5670051125934,2.4046929964771686,352.5207793847902,High,True
C-420,cholic  acid,"InChI=1S/C24H40O5/c1-13(4-7-21(28)29)16-5-6-17-22-18(12-20(27)24(16,17)3)23(2)9-8-15(25)10-14(23)11-19(22)26/h13-20,22,25-27H,4-12H2,1-3H3,(H,28,29)",BHQCQFFYRZLCQQ-UHFFFAOYSA-N,CC(CCC(O)=O)C1CCC2C3C(O)CC4CC(O)CCC4(C)C3CC(O)C12C,-3.63,0.1299999999999999,2,G3,408.5790000000002,3.4487000000000023,110.03720000000008,29.0,4.0,4.0,5.0,4.0,166.0,0.0,4.0,4.0,4.0,97.99,174.44805215366245,1.6063269488351186,636.7605586006101,High,True
C-423,"1,4,5-trimethylnaphthalene","InChI=1S/C13H14/c1-9-7-8-11(3)13-10(2)5-4-6-12(9)13/h4-8H,1-3H3",FSAWRQYDMHSDRN-UHFFFAOYSA-N,CC1=CC=C(C)C2=C1C=CC=C2C,-4.92,0.0055499999999999,2,G3,170.255,3.7650600000000023,58.15900000000003,13.0,0.0,0.0,0.0,0.0,66.0,2.0,0.0,0.0,2.0,0.0,79.20789399442198,2.998053323801449,444.5401181971992,Low,False
C-429,"1,5-dihydroxynaphthalene;  1,5-naphthalenediol","InChI=1S/C10H8O2/c11-9-5-1-3-7-8(9)4-2-6-10(7)12/h1-6,11-12H",BOKGTLAJQHTOKE-UHFFFAOYSA-N,OC1=CC=CC2=C1C=CC=C2O,-2.92,0.2499903686889832,3,G5,160.172,2.251000000000001,47.27760000000002,12.0,2.0,2.0,2.0,0.0,60.0,2.0,0.0,0.0,2.0,40.46,69.70153515562419,2.943372852061392,379.8581352532283,High,True
C-431,"dicamba;  2-methoxy-3,6-dichlorobenzoic acid","InChI=1S/C8H6Cl2O3/c1-13-7-5(10)3-2-4(9)6(7)8(11)12/h2-3H,1H3,(H,11,12)",IWEDIXLBFLAXBO-UHFFFAOYSA-N,COC1=C(C(O)=O)C(=CC=C1Cl)Cl,-1.7,0.1375499999999999,2,G3,221.039,2.7002000000000006,49.973300000000016,13.0,2.0,1.0,5.0,2.0,70.0,1.0,0.0,0.0,1.0,46.53,84.83712088380017,3.433209197937794,349.4875302332068,High,True
C-435,barban;  (3-chlorophenyl)carbamic acid 4-chloro-2-butynyl ester,"InChI=1S/C11H9Cl2NO2/c12-6-1-2-7-16-11(15)14-10-5-3-4-9(13)8-10/h3-5,8H,6-7H2,(H,14,15)",MCOQHIWZJUDQIC-UHFFFAOYSA-N,ClCC#CCOC(=O)NC1=CC(=CC=C1)Cl,-4.24,0.0651999999999999,2,G3,258.10400000000004,3.130700000000001,64.91870000000002,16.0,2.0,1.0,5.0,2.0,84.0,1.0,0.0,0.0,1.0,38.33,103.68680105026132,2.3963098098746016,423.48300610791136,Medium,False
C-468,"2,3-dichloronaphthalene",InChI=1S/C10H6Cl2/c11-9-5-7-3-1-2-4-8(7)6-10(9)12/h1-6H,SKGXUFZRYNGFJS-UHFFFAOYSA-N,ClC1=CC2=C(C=CC=C2)C=C1Cl,-5.36,0.4982999999999999,2,G3,197.064,4.146600000000002,53.96800000000002,12.0,0.0,0.0,2.0,0.0,60.0,2.0,0.0,0.0,2.0,0.0,80.71960010499551,2.839519942810836,380.60813525322834,Low,False
C-477,"1,5-dichloronaphthalene",InChI=1S/C10H6Cl2/c11-9-5-1-3-7-8(9)4-2-6-10(7)12/h1-6H,ZBQZXTBAGBTUAD-UHFFFAOYSA-N,ClC1=CC=CC2=C1C=CC=C2Cl,-5.7,0.008,2,G3,197.064,4.146600000000002,53.96800000000002,12.0,0.0,0.0,2.0,0.0,60.0,2.0,0.0,0.0,2.0,0.0,80.71960010499551,2.943372852061392,379.8581352532283,Low,False
C-492,"2,4,5-trichlorophenoxyacetic  acid","InChI=1S/C8H5Cl3O3/c9-4-1-6(11)7(2-5(4)10)14-3-8(12)13/h1-2H,3H2,(H,12,13)",SMYMJHWAQXWPDB-UHFFFAOYSA-N,OC(=O)COC1=C(Cl)C=C(Cl)C(=C1)Cl,-2.98,0.00835,2,G3,255.484,3.1102000000000007,54.602800000000016,14.0,2.0,1.0,6.0,3.0,76.0,1.0,0.0,0.0,1.0,46.53,95.14038711068184,2.866629468975875,365.0942913293867,High,True
C-495,17-beta-estradiol,"InChI=1S/C18H24O2/c1-18-9-8-14-13-5-3-12(19)10-11(13)2-4-15(14)16(18)6-7-17(18)20/h3,5,10,14-17,19-20H,2,4,6-9H2,1H3",VOXZDWNPVJITMN-UHFFFAOYSA-N,CC12CCC3C(CCC4=CC(=CC=C34)O)C1CCC2O,-4.83,0.1,2,G3,272.388,3.609200000000002,78.73060000000004,20.0,2.0,2.0,2.0,0.0,108.0,1.0,2.0,3.0,4.0,40.46,120.38168253606062,1.7111998765070122,538.2198018097886,Low,False
C-507,vitavax;  carboxin,"InChI=1S/C12H13NO2S/c1-9-11(16-8-7-15-9)12(14)13-10-5-3-2-4-6-10/h2-6H,7-8H2,1H3,(H,13,14)",GYSSRZJIHXQEHQ-UHFFFAOYSA-N,CC1=C(SCCO1)C(=O)NC2=CC=CC=C2,-3.14,0.0321499999999999,2,G3,235.308,2.620000000000001,66.18170000000003,16.0,3.0,1.0,4.0,2.0,84.0,1.0,0.0,1.0,2.0,38.33,98.87366115868709,2.086650443821241,414.28675391292165,High,True
C-519,atropine;  hyoscyamine,"InChI=1S/C17H23NO3/c1-18-13-7-8-14(18)10-15(9-13)21-17(20)16(11-19)12-5-3-2-4-6-12/h2-6,13-16,19H,7-11H2,1H3",RKUNBYITZUJHSG-UHFFFAOYSA-N,CN1C2CCC1CC(C2)OC(=O)C(CO)C3=CC=CC=C3,-1.91,0.4025339185156396,3,G5,289.375,1.9309,79.95580000000005,21.0,4.0,1.0,4.0,4.0,114.0,1.0,2.0,2.0,3.0,49.77,125.26323882275126,1.632677623313254,476.06840462966727,High,True
C-523,sulfacetamide;  n1-(acetyl)sulfanilamide,"InChI=1S/C8H10N2O3S/c1-6(11)10-14(12,13)8-4-2-7(9)3-5-8/h2-5H,9H2,1H3,(H,10,11)",SKIVFJLNDNKQPD-UHFFFAOYSA-N,CC(=O)N[S](=O)(=O)C1=CC=C(N)C=C1,-1.41,0.1177907749641994,3,G5,214.246,0.0935999999999998,51.85690000000002,14.0,4.0,2.0,6.0,2.0,76.0,1.0,0.0,0.0,1.0,89.26,81.97333822136979,3.047486126365013,436.15912554155096,High,True
C-533,caffeine,"InChI=1S/C8H10N4O2/c1-10-4-9-6-5(10)7(13)12(3)8(14)11(6)2/h4H,1-3H3",RYYVLZVUVIJVGH-UHFFFAOYSA-N,C[N]1C=NC2=C1C(=O)N(C)C(=O)N2C,-0.91,0.0344201635493308,4,G5,194.194,-1.0293,51.19600000000001,14.0,6.0,0.0,6.0,0.0,74.0,2.0,0.0,0.0,2.0,61.82,79.02895701814933,3.221281081084588,616.5285919942219,High,True
C-542,ethinyl  estradiol,"InChI=1S/C20H24O2/c1-3-20(22)11-9-18-17-6-4-13-12-14(21)5-7-15(13)16(17)8-10-19(18,20)2/h1,5,7,12,16-18,21-22H,4,6,8-11H2,2H3",BFPYWIDHMRZLRN-UHFFFAOYSA-N,CC12CCC3C(CCC4=CC(=CC=C34)O)C1CCC2(O)C#C,-4.47,0.0849999999999999,2,G3,296.41,3.612600000000002,86.50660000000003,22.0,2.0,2.0,2.0,0.0,116.0,1.0,2.0,3.0,4.0,40.46,132.1107921567131,1.7217049645427582,658.1613573389167,Medium,False
C-547,dibenzofuran,InChI=1S/C12H8O/c1-3-7-11-9(5-1)10-6-2-4-8-12(10)13-11/h1-8H,TXCDCPKCNAJMEE-UHFFFAOYSA-N,O1C2=C(C=CC=C2)C3=C1C=CC=C3,-4.6,0.1203792617798705,3,G5,168.195,3.586000000000002,53.72000000000003,13.0,1.0,0.0,1.0,0.0,62.0,3.0,0.0,0.0,3.0,13.14,75.58906144704423,2.642438259907001,512.8841359099093,Low,False
C-553,scopolamine;  hyoscine,"InChI=1S/C17H21NO4/c1-18-13-7-11(8-14(18)16-15(13)22-16)21-17(20)12(9-19)10-5-3-2-4-6-10/h2-6,11-16,19H,7-9H2,1H3",STECJAGHUSJQJN-UHFFFAOYSA-N,CN1C2CC(CC1C3OC23)OC(=O)C(CO)C4=CC=CC=C4,-1.24,0.38,2,G3,303.358,0.9180999999999993,79.38280000000005,22.0,5.0,1.0,5.0,4.0,118.0,1.0,3.0,3.0,4.0,62.3,129.37095289872892,1.4200028178766764,545.037182254803,High,True
C-554,metoclopramide,"InChI=1S/C14H22ClN3O2/c1-4-18(5-2)7-6-17-14(19)10-8-11(15)12(16)9-13(10)20-3/h8-9H,4-7,16H2,1-3H3,(H,17,19)",TTWJBBZEZQICBI-UHFFFAOYSA-N,CCN(CC)CCNC(=O)C1=CC(=C(N)C=C1OC)Cl,-3.18,0.1949999999999998,2,G3,299.802,2.0024,82.53760000000004,20.0,4.0,2.0,6.0,7.0,112.0,1.0,0.0,0.0,1.0,67.59,124.57886014192626,2.6993698551050787,461.97739235477394,High,True
C-557,asulam;  n1-(methoxycarbonyl)sulfanilamide;  asulox,"InChI=1S/C8H10N2O4S/c1-14-8(11)10-15(12,13)7-4-2-6(9)3-5-7/h2-5H,9H2,1H3,(H,10,11)",VGPYEHKOIGNJKV-UHFFFAOYSA-N,COC(=O)N[S](=O)(=O)C1=CC=C(N)C=C1,-1.76,0.0484,2,G3,230.245,0.3134999999999998,53.580900000000014,15.0,5.0,2.0,7.0,2.0,82.0,1.0,0.0,0.0,1.0,98.49,87.08688345087667,2.963576146016801,452.034942848858,High,True
C-559,deoxycorticosterone  acetate,"InChI=1S/C23H32O4/c1-14(24)27-13-21(26)20-7-6-18-17-5-4-15-12-16(25)8-10-22(15,2)19(17)9-11-23(18,20)3/h12,17-20H,4-11,13H2,1-3H3",VPGRYOFKCNULNK-UHFFFAOYSA-N,CC(=O)OCC(=O)C1CCC2C3CCC4=CC(=O)CCC4(C)C3CCC12C,-4.97,0.1699999999999999,2,G3,372.5050000000002,4.266700000000004,101.84000000000006,27.0,4.0,0.0,4.0,3.0,148.0,0.0,3.0,4.0,4.0,60.440000000000005,161.65316142789197,1.5550748620254948,707.1669090421246,Low,False
C-562,acyclovir;  acv,"InChI=1S/C8H11N5O3/c9-8-11-6-5(7(15)12-8)10-3-13(6)4-16-2-1-14/h3,14H,1-2,4H2,(H3,9,11,12,15)",MKUXAQIIEYXACX-UHFFFAOYSA-N,NC1=NC2=C(N=C[N]2COCCO)C(=O)N1,-2.12,0.0115499999999999,2,G3,225.208,-1.3318000000000003,55.59890000000001,16.0,7.0,3.0,8.0,4.0,86.0,2.0,0.0,0.0,2.0,119.04999999999998,89.69516162363053,2.360787751450609,546.0876253223265,High,True
C-600,"thidiazuron; 1-(1,2,3-thiadiazol-5-yl)-3-phenylurea","InChI=1S/C9H8N4OS/c14-9(12-8-6-10-13-15-8)11-7-4-2-1-3-5-7/h1-6H,(H2,11,12,14)",HFCYZXMHUIHAQI-UHFFFAOYSA-N,O=C(NC1=CN=NS1)NC2=CC=CC=C2,-3.85,0.0959499999999999,2,G3,220.25700000000003,2.1821,58.99240000000001,15.0,4.0,2.0,6.0,2.0,76.0,2.0,0.0,0.0,2.0,66.91,90.30388869687212,1.9351946097978587,428.6376985149668,Medium,False
C-604,tolbutamide,"InChI=1S/C12H18N2O3S/c1-3-4-9-13-12(15)14-18(16,17)11-7-5-10(2)6-8-11/h5-8H,3-4,9H2,1-2H3,(H2,13,14,15)",JLRGJRBPOGGCBT-UHFFFAOYSA-N,CCCCNC(=O)N[S](=O)(=O)C1=CC=C(C)C=C1,-3.17,0.1122499999999999,2,G3,270.354,1.78302,69.80720000000004,18.0,3.0,2.0,6.0,5.0,100.0,1.0,0.0,0.0,1.0,75.27000000000001,107.64307816555156,2.6444911926355648,494.5587374421375,High,True
C-605,cyprodinil;  4-cyclopropyl-6-methyl-2-phenylaminopyrimidine,"InChI=1S/C14H15N3/c1-10-9-13(11-7-8-11)17-14(15-10)16-12-5-3-2-4-6-12/h2-6,9,11H,7-8H2,1H3,(H,15,16,17)",HAORKNGNJCEJBX-UHFFFAOYSA-N,CC1=NC(=NC(=C1)C2CC2)NC3=CC=CC=C3,-4.05,0.0944000000000002,2,G3,225.295,3.4060200000000016,68.46870000000003,17.0,3.0,1.0,3.0,3.0,86.0,2.0,1.0,1.0,3.0,37.81,100.93159277511928,1.8700358331035545,518.2454609773257,Medium,False
C-609,hydrocortisone  acetate,"InChI=1S/C23H32O6/c1-13(24)29-12-19(27)23(28)9-7-17-16-5-4-14-10-15(25)6-8-21(14,2)20(16)18(26)11-22(17,23)3/h10,16-18,20,26,28H,4-9,11-12H2,1-3H3",ALEXXDVDDISNDU-UHFFFAOYSA-N,CC(=O)OCC(=O)C1(O)CCC2C3CCC4=CC(=O)CCC4(C)C3C(O)CC12C,-4.61,0.1349999999999998,2,G3,404.5030000000002,2.3524000000000003,104.68960000000006,29.0,6.0,2.0,6.0,3.0,160.0,0.0,3.0,4.0,4.0,100.90000000000002,171.24162893228396,1.6546195138211754,786.2375645587604,Low,False
C-611,naproxen,"InChI=1S/C14H14O3/c1-9(14(15)16)10-3-4-12-8-13(17-2)6-5-11(12)7-10/h3-9H,1-2H3,(H,15,16)",CMWTZPSULFXXJA-UHFFFAOYSA-N,COC1=CC=C2C=C(C=CC2=C1)C(C)C(O)=O,-3.29,0.4354135171500002,2,G3,230.263,3.036500000000001,66.55080000000004,17.0,2.0,1.0,3.0,3.0,88.0,2.0,0.0,0.0,2.0,46.53,99.64213719056526,2.478964438638834,560.3959195741091,High,True
C-619,"2,4,4'-trichlorobiphenyl",InChI=1S/C12H7Cl3/c13-9-3-1-8(2-4-9)11-6-5-10(14)7-12(11)15/h1-7H,BZTYNSQSZHARAZ-UHFFFAOYSA-N,ClC1=CC=C(C=C1)C2=C(Cl)C=C(Cl)C=C2,-6.0,0.1041635999548573,3,G5,257.547,5.313800000000001,66.90800000000003,15.0,0.0,0.0,3.0,1.0,76.0,2.0,0.0,0.0,2.0,0.0,103.398296006206,2.49424635054172,474.7259470533523,Low,False
C-641,"2,4,6-trichlorobiphenyl",InChI=1S/C12H7Cl3/c13-9-6-10(14)12(11(15)7-9)8-4-2-1-3-5-8/h1-7H,MTLMVEWEYZFYTH-UHFFFAOYSA-N,ClC1=CC(=C(C(=C1)Cl)C2=CC=CC=C2)Cl,-6.06,0.0537282255636849,3,G5,257.547,5.313800000000002,66.90800000000003,15.0,0.0,0.0,3.0,1.0,76.0,2.0,0.0,0.0,2.0,0.0,103.39829600620602,2.635224937794043,454.47594705335234,Low,False
C-645,methazolamide,"InChI=1S/C5H8N4O3S2/c1-3(10)7-4-9(2)8-5(13-4)14(6,11)12/h1-2H3,(H2,6,11,12)",FLOSMHQXBMRNHR-UHFFFAOYSA-N,CN1N=C(SC1=NC(C)=O)[S](N)(=O)=O,-1.92,0.04535,2,G3,236.278,-1.4237999999999995,48.70220000000001,14.0,6.0,1.0,9.0,1.0,78.0,1.0,0.0,0.0,1.0,107.41,83.94182492532305,3.398483669272069,523.4168055653823,High,True
C-648,"2,3,6-trichlorobiphenyl",InChI=1S/C12H7Cl3/c13-9-6-7-10(14)12(15)11(9)8-4-2-1-3-5-8/h1-7H,LVROLHVSYNLFBE-UHFFFAOYSA-N,ClC1=CC=C(Cl)C(=C1Cl)C2=CC=CC=C2,-6.29,0.1000999999999998,2,G3,257.547,5.313800000000002,66.90800000000002,15.0,0.0,0.0,3.0,1.0,76.0,2.0,0.0,0.0,2.0,0.0,103.39829600620602,2.6754566921501923,477.7259470533523,Low,False
C-653,nitrofurantoin,"InChI=1S/C8H6N4O5/c13-6-4-11(8(14)10-6)9-3-5-1-2-7(17-5)12(15)16/h1-3H,4H2,(H,10,13,14)/b9-3+",NXFQHRVNIOXGAQ-YCRREMRBSA-N,[O-][N+](=O)C1=CC=C(O1)\C=N\N2CC(=O)NC2=O,-3.38,0.0970935974545523,3,G5,238.159,0.0735000000000001,53.2011,17.0,6.0,1.0,9.0,3.0,88.0,1.0,1.0,1.0,2.0,118.04999999999998,93.83084397012487,2.070287586498745,519.7401440929854,High,True
C-659,parathion-methyl;  methylparathion,"InChI=1S/C8H10NO5PS/c1-12-15(16,13-2)14-8-5-3-7(4-6-8)9(10)11/h3-6H,1-2H3",RLBIQVVOMOPOHC-UHFFFAOYSA-N,CO[P](=S)(OC)OC1=CC=C(C=C1)[N+]([O-])=O,-3.68,0.0819999999999998,2,G3,263.211,2.490900000000001,62.027400000000014,16.0,6.0,0.0,8.0,5.0,88.0,1.0,0.0,0.0,1.0,70.83000000000001,97.5348268625236,2.83268136998952,412.94177594497535,High,True
C-662,ethofumesate,"InChI=1S/C13H18O5S/c1-5-16-12-13(2,3)10-8-9(18-19(4,14)15)6-7-11(10)17-12/h6-8,12H,5H2,1-4H3",IRCMYGHHKLLGHV-UHFFFAOYSA-N,CCOC1OC2=CC=C(O[S](C)(=O)=O)C=C2C1(C)C,-3.42,0.1689499999999999,2,G3,286.34900000000005,2.0576,70.98180000000004,19.0,5.0,0.0,6.0,4.0,106.0,1.0,0.0,1.0,2.0,61.830000000000005,113.15520471310924,2.35134855053488,576.6964147011811,High,True
C-665,adenosine,"InChI=1S/C10H13N5O4/c11-8-5-9(13-2-12-8)15(3-14-5)10-7(18)6(17)4(1-16)19-10/h2-4,6-7,10,16-18H,1H2,(H2,11,12,13)",OIRDTQYFTABQOQ-UHFFFAOYSA-N,NC1=NC=NC2=C1N=C[N]2C3OC(CO)C(O)C3O,-1.73,0.04047976845,2,G3,267.245,-1.9800000000000009,62.744800000000026,19.0,9.0,4.0,9.0,2.0,102.0,2.0,1.0,1.0,3.0,139.54000000000002,106.84616010324278,2.035435145869755,602.6175788415977,High,True
C-666,flurbiprofen,"InChI=1S/C15H13FO2/c1-10(15(17)18)12-7-8-13(14(16)9-12)11-5-3-2-4-6-11/h2-10H,1H3,(H,17,18)",SYTBZMRGLBWNTM-UHFFFAOYSA-N,CC(C(O)=O)C1=CC=C(C(=C1)F)C2=CC=CC=C2,-4.29,0.137290478750551,3,G5,244.265,3.6808000000000014,67.88680000000004,18.0,1.0,1.0,3.0,3.0,92.0,2.0,0.0,0.0,2.0,37.3,104.70461492391684,2.4013638717125736,563.9612141459353,Medium,False
C-676,triamcinolone  acetonide,"InChI=1S/C24H31FO6/c1-20(2)30-19-10-16-15-6-5-13-9-14(27)7-8-21(13,3)23(15,25)17(28)11-22(16,4)24(19,31-20)18(29)12-26/h7-9,15-17,19,26,28H,5-6,10-12H2,1-4H3",YNDXUCZADRHECN-UHFFFAOYSA-N,CC1(C)OC2CC3C4CCC5=CC(=O)C=CC5(C)C4(F)C(O)CC3(C)C2(O1)C(=O)CO,-4.31,0.2993697082575693,3,G5,434.50400000000025,2.4188000000000005,108.59860000000003,31.0,6.0,2.0,7.0,2.0,170.0,0.0,4.0,5.0,5.0,93.06000000000002,181.0286953933564,1.6368996691130526,925.030308713443,Medium,False
C-715,"2,2',4,4'-tetrachlorobiphenyl",InChI=1S/C12H6Cl4/c13-7-1-3-9(11(15)5-7)10-4-2-8(14)6-12(10)16/h1-6H,QORAVNMWUNPXAO-UHFFFAOYSA-N,ClC1=CC(=C(C=C1)C2=CC=C(Cl)C=C2Cl)Cl,-6.51,0.296225465932061,3,G5,291.992,5.967200000000002,71.91800000000002,16.0,0.0,0.0,4.0,1.0,82.0,2.0,0.0,0.0,2.0,0.0,113.70156223308769,2.5856376418759384,485.037124074059,Low,False
C-718,"2,2',4,5'-tetrachlorobiphenyl",InChI=1S/C12H6Cl4/c13-7-2-4-11(15)10(5-7)9-3-1-8(14)6-12(9)16/h1-6H,ZWPVHELAQPIZHO-UHFFFAOYSA-N,ClC1=CC(=C(C=C1)C2=CC(=CC=C2Cl)Cl)Cl,-7.26,0.3436499999999998,2,G3,291.992,5.967200000000002,71.91800000000002,16.0,0.0,0.0,4.0,1.0,82.0,2.0,0.0,0.0,2.0,0.0,113.70156223308769,2.6231883850988287,534.5371240740591,Low,False
C-721,"2,2',5,5'-tetrachlorobiphenyl",InChI=1S/C12H6Cl4/c13-7-1-3-11(15)9(5-7)10-6-8(14)2-4-12(10)16/h1-6H,HCWZEPKLWVAEOV-UHFFFAOYSA-N,ClC1=CC(=C(Cl)C=C1)C2=CC(=CC=C2Cl)Cl,-7.04,0.1239753470116809,3,G5,291.992,5.967200000000002,71.91800000000002,16.0,0.0,0.0,4.0,1.0,82.0,2.0,0.0,0.0,2.0,0.0,113.70156223308769,2.6616827212373178,485.037124074059,Low,False
C-724,"2,3,4,5-tetrachlorobiphenyl",InChI=1S/C12H6Cl4/c13-9-6-8(7-4-2-1-3-5-7)10(14)12(16)11(9)15/h1-6H,HLQDGCWIOSOMDP-UHFFFAOYSA-N,ClC1=CC(=C(Cl)C(=C1Cl)Cl)C2=CC=CC=C2,-7.16,0.2160131065982392,3,G5,291.992,5.967200000000002,71.91800000000002,16.0,0.0,0.0,4.0,1.0,82.0,2.0,0.0,0.0,2.0,0.0,113.7015622330877,2.677072338935707,520.287124074059,Low,False
C-733,"4,4'-ddd; 2,2-bis(4-chlorophenyl)-1,1-dichloroethane","InChI=1S/C14H10Cl4/c15-11-5-1-9(2-6-11)13(14(17)18)10-3-7-12(16)8-4-10/h1-8,13-14H",AHJKRLASYNVKDZ-UHFFFAOYSA-N,ClC(Cl)C(C1=CC=C(Cl)C=C1)C2=CC=C(Cl)C=C2,-7.2,0.3245,2,G3,320.04600000000005,5.929000000000003,80.24100000000003,18.0,0.0,0.0,4.0,3.0,94.0,2.0,0.0,0.0,2.0,0.0,126.43144646188092,2.3941105028842737,456.8221302041951,Low,False
C-751,medazepam,"InChI=1S/C16H15ClN2/c1-19-10-9-18-16(12-5-3-2-4-6-12)14-11-13(17)7-8-15(14)19/h2-8,11H,9-10H2,1H3",YLCXGBZIZBEVPZ-UHFFFAOYSA-N,CN1CCN=C(C2=CC=CC=C2)C3=C1C=CC(=C3)Cl,-4.43,0.3349999999999999,2,G3,270.76300000000003,3.627200000000003,81.67000000000004,19.0,2.0,0.0,3.0,1.0,96.0,2.0,0.0,1.0,3.0,15.6,117.90085701256336,2.184410253930376,619.9009892075029,Medium,False
C-753,carbamazepine,"InChI=1S/C15H12N2O/c16-15(18)17-13-7-3-1-5-11(13)9-10-12-6-2-4-8-14(12)17/h1-10H,(H2,16,18)",FFGPTBGBLSHEPO-UHFFFAOYSA-N,NC(=O)N1C2=C(C=CC=C2)C=CC3=C1C=CC=C3,-3.29,0.1407485069981996,3,G5,236.274,3.3872000000000018,73.53440000000003,18.0,1.0,1.0,3.0,0.0,88.0,2.0,0.0,1.0,3.0,46.330000000000005,105.1491359502972,2.305250789577584,596.9467906495954,High,True
C-758,trifluralin,"InChI=1S/C13H16F3N3O4/c1-3-5-17(6-4-2)12-10(18(20)21)7-9(13(14,15)16)8-11(12)19(22)23/h7-8H,3-6H2,1-2H3",ZSDSQXJSNMTJDA-UHFFFAOYSA-N,CCCN(CCC)C1=C(C=C(C=C1[N+]([O-])=O)C(F)(F)F)[N+]([O-])=O,-6.05,0.2399881293360617,3,G5,335.28200000000004,4.148200000000004,77.54780000000001,23.0,5.0,0.0,10.0,7.0,128.0,1.0,0.0,0.0,1.0,89.51999999999998,129.54838924425488,3.699377936225601,563.6129198986837,Low,False
C-771,fentanyl,"InChI=1S/C22H28N2O/c1-2-22(25)24(20-11-7-4-8-12-20)21-14-17-23(18-15-21)16-13-19-9-5-3-6-10-19/h3-12,21H,2,13-18H2,1H3",PJMPHNIQZUBGLI-UHFFFAOYSA-N,CCC(=O)N(C1CCN(CC1)CCC2=CC=CC=C2)C3=CC=CC=C3,-3.82,0.2970499999999998,2,G3,336.479,4.136700000000003,103.82700000000006,25.0,2.0,0.0,3.0,6.0,132.0,2.0,1.0,1.0,3.0,23.550000000000004,150.81327675644835,1.567632131858489,648.2421416714782,Medium,False
C-780,fluoranthene,InChI=1S/C16H10/c1-2-8-13-12(7-1)14-9-3-5-11-6-4-10-15(13)16(11)14/h1-10H,GVEPBJHOBDJJJI-UHFFFAOYSA-N,C1=CC2=C(C=C1)C3=C4C(=CC=C3)C=CC=C24,-5.93,0.0415879255981299,3,G5,202.256,4.487200000000003,68.37800000000003,16.0,0.0,0.0,0.0,0.0,74.0,3.0,0.0,1.0,4.0,0.0,94.16433070376698,2.312996465176316,650.310154499518,Low,False
C-783,benomyl,"InChI=1S/C14H18N4O3/c1-3-4-9-15-13(19)18-11-8-6-5-7-10(11)16-12(18)17-14(20)21-2/h5-8H,3-4,9H2,1-2H3,(H,15,19)(H,16,17,20)",RIOXQFHNBCKOKP-UHFFFAOYSA-N,CCCCNC(=O)[N]1C(=NC2=C1C=CC=C2)NC(=O)OC,-4.86,0.0115499999999997,2,G3,290.32300000000004,2.5724,79.46540000000003,21.0,5.0,2.0,7.0,4.0,112.0,2.0,0.0,0.0,2.0,85.25000000000001,121.8427561373751,2.3502170049464204,650.7065804079459,Low,False
C-818,"2,2',3,4,5'-pentachlorobiphenyl",InChI=1S/C12H5Cl5/c13-6-1-3-9(14)8(5-6)7-2-4-10(15)12(17)11(7)16/h1-5H,OPKYDBFRKPQCBS-UHFFFAOYSA-N,ClC1=CC(=C(Cl)C=C1)C2=C(Cl)C(=C(Cl)C=C2)Cl,-7.91,0.4322500000000002,2,G3,326.437,6.620600000000001,76.92800000000001,17.0,0.0,0.0,5.0,1.0,88.0,2.0,0.0,0.0,2.0,0.0,124.00482845996936,2.6870358722469825,577.3489383657761,Low,False
C-820,ethoxzolamide;  2-sulfamoyl-6-ethoxybenzothiazole; 6-ethoxybenzothiazole-2-sulfonamide,"InChI=1S/C9H10N2O3S2/c1-2-14-6-3-4-7-8(5-6)15-9(11-7)16(10,12)13/h3-5H,2H2,1H3,(H2,10,12,13)",OUZWUKMCLIBBOG-UHFFFAOYSA-N,CCOC1=CC2=C(C=C1)N=C(S2)[S](N)(=O)=O,-4.03,0.2434104946153493,3,G5,258.324,1.3423999999999998,62.16220000000003,16.0,5.0,1.0,7.0,3.0,86.0,2.0,0.0,0.0,2.0,82.28,96.91717495031806,2.5417251486516017,618.7158480810886,Medium,False
C-840,prodiamine,"InChI=1S/C13H17F3N4O4/c1-3-5-18(6-4-2)11-9(19(21)22)7-8(13(14,15)16)10(17)12(11)20(23)24/h7H,3-6,17H2,1-2H3",RSVPPPHXAASNOL-UHFFFAOYSA-N,CCCN(CCC)C1=C(C(=C(C=C1[N+]([O-])=O)C(F)(F)F)N)[N+]([O-])=O,-7.07,0.18025,2,G3,350.297,3.730400000000002,81.9602,24.0,6.0,1.0,11.0,7.0,134.0,1.0,0.0,0.0,1.0,115.54,134.8882799412676,3.869113877191057,643.0844693591861,Low,False
C-863,oxycarboxin,"InChI=1S/C12H13NO4S/c1-9-11(18(15,16)8-7-17-9)12(14)13-10-5-3-2-4-6-10/h2-6H,7-8H2,1H3,(H,13,14)",AMEKQAFGQBKLKX-UHFFFAOYSA-N,CC1=C(C(=O)NC2=CC=CC=C2)[S](=O)(=O)CCO1,-2.43,0.0745500000000001,2,G3,267.306,1.3016,67.51050000000004,18.0,4.0,1.0,6.0,2.0,96.0,1.0,0.0,1.0,2.0,72.47,105.3759495151084,2.2854342658256472,589.763242395379,High,True