ID,Name,InChI,InChIKey,SMILES,Solubility,SD,Ocurrences,Group,MolWt,MolLogP,MolMR,HeavyAtomCount,NumHAcceptors,NumHDonors,NumHeteroatoms,NumRotatableBonds,NumValenceElectrons,NumAromaticRings,NumSaturatedRings,NumAliphaticRings,RingCount,TPSA,LabuteASA,BalabanJ,BertzCT,bin,is_sol
B-4028,"2,4,6-trinitrotoluene","InChI=1S/C7H5N3O6/c1-4-6(9(13)14)2-5(8(11)12)3-7(4)10(15)16/h2-3H,1H3",SPSSULHKWOKEEL-UHFFFAOYSA-N,Cc1c(cc(cc1[N+]([O-])=O)[N+]([O-])=O)[N+]([O-])=O,-3.2423,0.0135622535002421,3,G5,227.132,1.7196200000000006,51.1422,16.0,6.0,0.0,9.0,3.0,84.0,1.0,0.0,0.0,1.0,129.42000000000002,87.75527240139297,3.5727545380551327,461.8906850873487,High,True
B-4034,o-ethyl carbamate (urethane),"InChI=1S/C3H7NO2/c1-2-6-3(4)5/h2H2,1H3,(H2,4,5)",JOYRKODLDBILNP-UHFFFAOYSA-N,CCOC(N)=O,0.7314,0.0592999999999999,2,G3,89.09400000000001,0.1016000000000002,21.2094,6.0,2.0,1.0,3.0,1.0,36.0,0.0,0.0,0.0,0.0,52.32,36.08409328318613,2.831257109931365,52.75488750216347,High,True
B-4035,acrylamide,"InChI=1S/C3H5NO/c1-2-3(4)5/h2H,1H2,(H2,4,5)",HRPVXLWXLXDGHG-UHFFFAOYSA-N,NC(=O)C=C,0.9544,0.0127999999999999,2,G3,71.07900000000001,-0.3423,19.3914,5.0,1.0,1.0,2.0,1.0,28.0,0.0,0.0,0.0,0.0,43.09,30.28094502149499,3.204805417886435,57.91340299823497,High,True
B-4046,diethyl ether,"InChI=1S/C4H10O/c1-3-5-4-2/h3-4H2,1-2H3",RTZKZFJDLAIYFH-UHFFFAOYSA-N,CCOCC,-0.0889,0.01559585425,2,G3,74.123,1.0428000000000002,22.166999999999994,5.0,1.0,0.0,1.0,2.0,32.0,0.0,0.0,0.0,0.0,9.23,32.94762260052625,2.19060968716425,11.119415478763749,High,True
B-4048,di(n-propyl) ether,"InChI=1S/C6H14O/c1-3-5-7-6-4-2/h3-6H2,1-2H3",POLCUAVZOMRGSN-UHFFFAOYSA-N,CCCOCCC,-1.3192,0.1504000000000001,2,G3,102.177,1.823,31.400999999999986,7.0,1.0,0.0,1.0,4.0,44.0,0.0,0.0,0.0,0.0,9.23,45.67750682931947,2.447472887876344,23.36099039894992,High,True
B-4074,"4,4'-dichlorobiphenyl",InChI=1S/C12H8Cl2/c13-11-5-1-9(2-6-11)10-3-7-12(14)8-4-10/h1-8H,YTBRNEUEFCNVHC-UHFFFAOYSA-N,Clc1ccc(cc1)c2ccc(Cl)cc2,-6.5561,0.0219499999999999,2,G3,223.102,4.660400000000002,61.898000000000025,14.0,0.0,0.0,2.0,1.0,70.0,2.0,0.0,0.0,2.0,0.0,93.09502977932434,2.396509039726096,371.5796467381504,Low,False
B-4076,2-chlorobiphenyl,InChI=1S/C12H9Cl/c13-12-9-5-4-8-11(12)10-6-2-1-3-7-10/h1-9H,LAXBNTIAOJWAOP-UHFFFAOYSA-N,Clc1ccccc1c2ccccc2,-4.5917,0.0258500000000001,2,G3,188.657,4.007000000000002,56.88800000000003,13.0,0.0,0.0,1.0,1.0,64.0,2.0,0.0,0.0,2.0,0.0,82.79176355244267,2.5360704460016144,392.8790477621569,Low,False
B-4083,"2,2'-dichlorobiphenyl",InChI=1S/C12H8Cl2/c13-11-7-3-1-5-9(11)10-6-2-4-8-12(10)14/h1-8H,JAYCNKDKIKZTAF-UHFFFAOYSA-N,Clc1ccccc1c2ccccc2Cl,-5.0813,0.3967657271265025,3,G5,223.102,4.660400000000002,61.898000000000025,14.0,0.0,0.0,2.0,1.0,70.0,2.0,0.0,0.0,2.0,0.0,93.09502977932434,2.6088478266698347,406.0796467381504,Low,False
B-4085,"2,2',6,6'-pcb",InChI=1S/C12H6Cl4/c13-7-3-1-4-8(14)11(7)12-9(15)5-2-6-10(12)16/h1-6H,PXAGFNRKXSYIHU-UHFFFAOYSA-N,Clc1cccc(Cl)c1c2c(Cl)cccc2Cl,-7.3898,0.3519128806331978,3,G5,291.992,5.967200000000002,71.918,16.0,0.0,0.0,4.0,1.0,82.0,2.0,0.0,0.0,2.0,0.0,113.70156223308769,2.7731464229293827,444.5371240740592,Low,False
B-4090,"2',3,4,4',5'-pcb",InChI=1S/C12H5Cl5/c13-8-2-1-6(3-10(8)15)7-4-11(16)12(17)5-9(7)14/h1-5H,IUTPYMGCWINGEY-UHFFFAOYSA-N,Clc1ccc(cc1Cl)c2cc(Cl)c(Cl)cc2Cl,-7.3867,0.4066499999999995,2,G3,326.437,6.6206000000000005,76.92800000000003,17.0,0.0,0.0,5.0,1.0,88.0,2.0,0.0,0.0,2.0,0.0,124.00482845996932,2.5988657342017785,577.348938365776,Low,False
B-4091,"2,3',4,4'-tetrachlorobiphenyl",InChI=1S/C12H6Cl4/c13-8-2-3-9(11(15)6-8)7-1-4-10(14)12(16)5-7/h1-6H,RKLLTEAEZIJBAU-UHFFFAOYSA-N,Clc1ccc(c(Cl)c1)c2ccc(Cl)c(Cl)c2,-6.8995,0.45025,2,G3,291.992,5.967200000000002,71.91800000000002,16.0,0.0,0.0,4.0,1.0,82.0,2.0,0.0,0.0,2.0,0.0,113.70156223308769,2.5431406197905666,534.5371240740591,Low,False
B-4092,"2,3',4',5-pcb",InChI=1S/C12H6Cl4/c13-8-2-4-10(14)9(6-8)7-1-3-11(15)12(16)5-7/h1-6H,KENZYIHFBRWMOD-UHFFFAOYSA-N,Clc1ccc(Cl)c(c1)c2ccc(Cl)c(Cl)c2,-6.8526,0.1987000000000001,2,G3,291.992,5.967200000000002,71.918,16.0,0.0,0.0,4.0,1.0,82.0,2.0,0.0,0.0,2.0,0.0,113.70156223308769,2.5794829348325483,534.5371240740591,Low,False
B-4096,"2,4-dichlorobiphenyl",InChI=1S/C12H8Cl2/c13-10-6-7-11(12(14)8-10)9-4-2-1-3-5-9/h1-8H,WEJZHZJJXPXXMU-UHFFFAOYSA-N,Clc1ccc(c(Cl)c1)c2ccccc2,-5.2878,0.0188999999999999,2,G3,223.102,4.660400000000003,61.89800000000003,14.0,0.0,0.0,2.0,1.0,70.0,2.0,0.0,0.0,2.0,0.0,93.09502977932436,2.5278040316309607,435.3296467381504,Low,False
B-4099,"2,5-dichlorobiphenyl",InChI=1S/C12H8Cl2/c13-10-6-7-12(14)11(8-10)9-4-2-1-3-5-9/h1-8H,KKQWHYGECTYFIA-UHFFFAOYSA-N,Clc1ccc(Cl)c(c1)c2ccccc2,-5.2993,0.0296499999999997,2,G3,223.10200000000003,4.660400000000003,61.89800000000002,14.0,0.0,0.0,2.0,1.0,70.0,2.0,0.0,0.0,2.0,0.0,93.09502977932436,2.565840902948807,435.3296467381504,Low,False
B-4100,"2,4'-dichlorobiphenyl",InChI=1S/C12H8Cl2/c13-10-7-5-9(6-8-10)11-3-1-2-4-12(11)14/h1-8H,UFNIBRDIUNVOMX-UHFFFAOYSA-N,Clc1ccc(cc1)c2ccccc2Cl,-5.2803,0.0926823607813265,3,G5,223.102,4.660400000000002,61.898000000000025,14.0,0.0,0.0,2.0,1.0,70.0,2.0,0.0,0.0,2.0,0.0,93.09502977932434,2.498254962562555,432.3296467381504,Low,False
B-4102,"2,2',3,4,4',5'-hexachlorobiphenyl",InChI=1S/C12H4Cl6/c13-7-2-1-5(11(17)12(7)18)6-3-9(15)10(16)4-8(6)14/h1-4H,RPUMZMSNLZHIGZ-UHFFFAOYSA-N,Clc1ccc(c(Cl)c1Cl)c2cc(Cl)c(Cl)cc2Cl,-8.3813,0.0341685040156378,3,G5,360.88200000000006,7.274000000000001,81.938,18.0,0.0,0.0,6.0,1.0,94.0,2.0,0.0,0.0,2.0,0.0,134.308094686851,2.699049768905642,620.4500798683472,Low,False
B-4109,"2,4,5,2',5'-pcb",InChI=1S/C12H5Cl5/c13-6-1-2-9(14)7(3-6)8-4-11(16)12(17)5-10(8)15/h1-5H,LAHWLEDBADHJGA-UHFFFAOYSA-N,Clc1ccc(Cl)c(c1)c2cc(Cl)c(Cl)cc2Cl,-7.3263,0.2818499999999999,2,G3,326.437,6.620600000000001,76.928,17.0,0.0,0.0,5.0,1.0,88.0,2.0,0.0,0.0,2.0,0.0,124.00482845996932,2.6779540918569533,577.348938365776,Low,False
B-4115,"2,2',3,3',6,6'-hexachlorobiphenyl",InChI=1S/C12H4Cl6/c13-5-1-3-7(15)11(17)9(5)10-6(14)2-4-8(16)12(10)18/h1-4H,FZFUUSROAHKTTF-UHFFFAOYSA-N,Clc1ccc(Cl)c(c1Cl)c2c(Cl)ccc(Cl)c2Cl,-7.9032,0.4550453554927858,3,G5,360.88200000000006,7.274000000000001,81.938,18.0,0.0,0.0,6.0,1.0,94.0,2.0,0.0,0.0,2.0,0.0,134.308094686851,2.854646553159624,564.9500798683472,Low,False
B-4117,"2,4',6-trichlorobiphenyl",InChI=1S/C12H7Cl3/c13-9-6-4-8(5-7-9)12-10(14)2-1-3-11(12)15/h1-7H,IHIDFKLAWYPTKB-UHFFFAOYSA-N,Clc1ccc(cc1)c2c(Cl)cccc2Cl,-6.2095,0.0347500000000002,2,G3,257.547,5.313800000000001,66.90800000000003,15.0,0.0,0.0,3.0,1.0,76.0,2.0,0.0,0.0,2.0,0.0,103.398296006206,2.584092666430649,454.47594705335234,Low,False
B-4121,"2',3,4-trichlorobiphenyl",InChI=1S/C12H7Cl3/c13-10-4-2-1-3-9(10)8-5-6-11(14)12(15)7-8/h1-7H,RIMXLXBUOQMDHV-UHFFFAOYSA-N,Clc1ccc(cc1Cl)c2ccccc2Cl,-6.287000000000001,0.1114999999999994,2,G3,257.547,5.313800000000001,66.90800000000003,15.0,0.0,0.0,3.0,1.0,76.0,2.0,0.0,0.0,2.0,0.0,103.398296006206,2.5510019801121246,491.9759470533523,Low,False
B-4122,"3,4,4'-trichlorobiphenyl",InChI=1S/C12H7Cl3/c13-10-4-1-8(2-5-10)9-3-6-11(14)12(15)7-9/h1-7H,YZANRISAORXTHU-UHFFFAOYSA-N,Clc1ccc(cc1)c2ccc(Cl)c(Cl)c2,-6.5541,0.2529499999999998,2,G3,257.547,5.313800000000001,66.90800000000002,15.0,0.0,0.0,3.0,1.0,76.0,2.0,0.0,0.0,2.0,0.0,103.398296006206,2.452797331194705,474.7259470533523,Low,False
B-4124,"2,2',3,5'-tetrachlorobiphenyl",InChI=1S/C12H6Cl4/c13-7-4-5-10(14)9(6-7)8-2-1-3-11(15)12(8)16/h1-6H,ALDJIKXAHSDLLB-UHFFFAOYSA-N,Clc1ccc(Cl)c(c1)c2cccc(Cl)c2Cl,-6.4654,0.1176499999999998,2,G3,291.9920000000001,5.967200000000002,71.918,16.0,0.0,0.0,4.0,1.0,82.0,2.0,0.0,0.0,2.0,0.0,113.70156223308769,2.671376416567896,534.5371240740591,Low,False
B-4130,"2,2',3,3',4,5-hexachlorobiphenyl",InChI=1S/C12H4Cl6/c13-7-3-1-2-5(9(7)15)6-4-8(14)11(17)12(18)10(6)16/h1-4H,VQQKIXKPMJTUMP-UHFFFAOYSA-N,Clc1cccc(c1Cl)c2cc(Cl)c(Cl)c(Cl)c2Cl,-8.4206,0.2898637074365962,3,G5,360.88200000000006,7.274000000000001,81.938,18.0,0.0,0.0,6.0,1.0,94.0,2.0,0.0,0.0,2.0,0.0,134.308094686851,2.7606300611154557,620.4500798683472,Low,False
B-4132,"2-methyl-1,4-naphthoquinone","InChI=1S/C11H8O2/c1-7-6-10(12)8-4-2-3-5-9(8)11(7)13/h2-6H,1H3",MJVAVZPDRWSRRC-UHFFFAOYSA-N,CC1=CC(=O)c2ccccc2C1=O,-3.0319,0.01905,2,G3,172.18299999999996,2.0119,48.86000000000002,13.0,2.0,0.0,2.0,0.0,64.0,1.0,0.0,1.0,2.0,34.14,75.88372370585405,2.690389534648589,427.4713488019866,High,True
B-4154,azobenzene,InChI=1S/C12H10N2/c1-3-7-11(8-4-1)13-14-12-9-5-2-6-10-12/h1-10H,DMLAVOWQYNRWNQ-UHFFFAOYSA-N,c1ccc(cc1)N=Nc2ccccc2,-4.4544,0.2571999999999999,2,G3,182.22600000000003,4.102000000000002,57.06000000000003,14.0,2.0,0.0,2.0,2.0,68.0,2.0,0.0,0.0,2.0,24.72,82.93527517005009,2.159341417811232,365.35156717534267,Medium,False
B-4173,"p,p'-ddt","InChI=1S/C14H9Cl5/c15-11-5-1-9(2-6-11)13(14(17,18)19)10-3-7-12(16)8-4-10/h1-8,13H",YVGGHNCTFXOJCH-UHFFFAOYSA-N,Clc1ccc(cc1)C(c2ccc(Cl)cc2)C(Cl)(Cl)Cl,-7.8092,0.3860360993482344,4,G5,354.491,6.495500000000002,85.03700000000002,19.0,0.0,0.0,5.0,2.0,100.0,2.0,0.0,0.0,2.0,0.0,136.73471268876256,2.4741168126302453,494.04416142195936,Low,False
B-4176,dimethoate,"InChI=1S/C5H12NO3PS2/c1-6-5(7)4-12-10(11,8-2)9-3/h4H2,1-3H3,(H,6,7)",MCWXGJITAZMZEV-UHFFFAOYSA-N,CNC(=O)CS[P](=S)(OC)OC,-0.9624,0.1112,2,G3,229.263,0.9829,54.82770000000003,12.0,5.0,1.0,7.0,5.0,72.0,0.0,0.0,0.0,0.0,47.56,81.30244672165102,3.89250063709835,191.13235378876152,High,True
B-4184,"2,4-dichlorophenoxyacetic acid","InChI=1S/C8H6Cl2O3/c9-5-1-2-7(6(10)3-5)13-4-8(11)12/h1-3H,4H2,(H,11,12)",OVSKIKFHRZPJSS-UHFFFAOYSA-N,OC(=O)COc1ccc(Cl)cc1Cl,-2.5139,0.16805,2,G3,221.039,2.4568000000000003,49.59280000000002,13.0,2.0,1.0,5.0,3.0,70.0,1.0,0.0,0.0,1.0,46.53,84.83712088380017,2.7194415184626908,325.1652197817895,High,True
B-4188,fenuron,"InChI=1S/C9H12N2O/c1-11(2)9(12)10-8-6-4-3-5-7-8/h3-7H,1-2H3,(H,10,12)",XXOYNJXVWVNOOJ-UHFFFAOYSA-N,CN(C)C(=O)Nc1ccccc1,-1.6101,0.1108332180450528,3,G5,164.208,1.7801,49.14770000000003,12.0,1.0,1.0,3.0,1.0,64.0,1.0,0.0,0.0,1.0,32.34,71.99744741654196,2.5897829796017806,256.4908622767174,High,True
B-4190,dicofol,"InChI=1S/C14H9Cl5O/c15-11-5-1-9(2-6-11)13(20,14(17,18)19)10-3-7-12(16)8-4-10/h1-8,20H",UOAMTSKGCBMZTC-UHFFFAOYSA-N,OC(c1ccc(Cl)cc1)(c2ccc(Cl)cc2)C(Cl)(Cl)Cl,-5.6657,0.1088500000000003,2,G3,370.49,5.599500000000002,86.1928,20.0,1.0,1.0,6.0,2.0,106.0,2.0,0.0,0.0,2.0,20.23,141.52894644095858,2.622374710790276,540.9564823741972,Low,False
B-4192,dichlorprop,"InChI=1S/C9H8Cl2O3/c1-5(9(12)13)14-8-3-2-6(10)4-7(8)11/h2-5H,1H3,(H,12,13)",MZHCENGPTKEIGP-UHFFFAOYSA-N,CC(Oc1ccc(Cl)cc1Cl)C(O)=O,-2.8271,0.18855,2,G3,235.066,2.845300000000001,54.18780000000002,14.0,2.0,1.0,5.0,3.0,76.0,1.0,0.0,0.0,1.0,46.53,91.2020629981968,2.817664884623791,351.9103452953617,High,True
B-4198,phorate,"InChI=1S/C7H17O2PS3/c1-4-8-10(11,9-5-2)13-7-12-6-3/h4-7H2,1-3H3",BULVZWIRKLYCBC-UHFFFAOYSA-N,CCO[P](=S)(OCC)SCSCC,-3.7166,0.1967000000000001,2,G3,260.386,3.727700000000003,68.12700000000004,13.0,5.0,0.0,6.0,8.0,80.0,0.0,0.0,0.0,0.0,18.46,94.44405669215767,3.845934399891641,155.81664443119072,Medium,False
B-4207,linuron,"InChI=1S/C9H10Cl2N2O2/c1-13(15-2)9(14)12-6-3-4-7(10)8(11)5-6/h3-5H,1-2H3,(H,12,14)",XKJMBINCVNINCA-UHFFFAOYSA-N,CON(C)C(=O)Nc1ccc(Cl)c(Cl)c1,-3.5213,0.0353499999999999,2,G3,249.097,3.0185000000000013,60.252700000000026,15.0,2.0,1.0,6.0,2.0,82.0,1.0,0.0,0.0,1.0,41.57,97.67156359929017,2.7296891226311293,371.1300188482176,High,True
B-4210,neburon,"InChI=1S/C12H16Cl2N2O/c1-3-4-7-16(2)12(17)15-9-5-6-10(13)11(14)8-9/h5-6,8H,3-4,7H2,1-2H3,(H,15,17)",CCGPUGMWYLICGL-UHFFFAOYSA-N,CCCCN(C)C(=O)Nc1ccc(Cl)c(Cl)c1,-4.7584,0.0057999999999998,2,G3,275.179,4.257200000000004,73.01870000000004,17.0,1.0,1.0,5.0,4.0,94.0,1.0,0.0,0.0,1.0,32.34,111.69880621349512,2.579597123413285,396.0920604590611,Low,False
B-4211,o-butyl carbamate,"InChI=1S/C5H11NO2/c1-2-3-4-8-5(6)7/h2-4H2,1H3,(H2,6,7)",SKKTUOZKZKCGTB-UHFFFAOYSA-N,CCCCOC(N)=O,-0.6571,0.01167800755,2,G3,117.148,0.8818000000000001,30.44339999999999,8.0,2.0,1.0,3.0,3.0,48.0,0.0,0.0,0.0,0.0,52.32,48.81397751197934,2.822354554248032,72.82892142331043,High,True
B-4214,propanil,"InChI=1S/C9H9Cl2NO/c1-2-9(13)12-6-3-4-7(10)8(11)5-6/h3-5H,2H2,1H3,(H,12,13)",LFULEKSKNZEWOE-UHFFFAOYSA-N,CCC(=O)Nc1ccc(Cl)c(Cl)c1,-2.9864,0.1349358366039208,4,G5,218.083,3.3419000000000016,55.38270000000002,13.0,1.0,1.0,4.0,2.0,70.0,1.0,0.0,0.0,1.0,29.1,86.84414620010195,2.793568433647237,325.3907822709722,High,True
B-4224,fluometuron,"InChI=1S/C10H11F3N2O/c1-15(2)9(16)14-8-5-3-4-7(6-8)10(11,12)13/h3-6H,1-2H3,(H,14,16)",RZILCCPWPBTYDO-UHFFFAOYSA-N,CN(C)C(=O)Nc1cccc(c1)C(F)(F)F,-3.4365,0.0609587074733803,3,G5,232.205,2.7989000000000006,54.14970000000002,16.0,1.0,1.0,6.0,1.0,88.0,1.0,0.0,0.0,1.0,32.34,90.85899573971729,2.8751990386596566,387.8956862132586,High,True
B-4225,molinate,"InChI=1S/C9H17NOS/c1-2-12-9(11)10-7-5-3-4-6-8-10/h2-8H2,1H3",DEDOPGXGGQYYMW-UHFFFAOYSA-N,CCSC(=O)N1CCCCCC1,-2.2858,0.0421,2,G3,187.30799999999996,2.735500000000001,53.56900000000003,12.0,2.0,0.0,3.0,1.0,70.0,0.0,1.0,1.0,1.0,20.31,78.69742258508556,2.3197705033828684,141.4639615981846,High,True
B-4230,n-methyl-2-isopropylphenylcarbam,"InChI=1S/C11H15NO2/c1-8(2)9-6-4-5-7-10(9)14-11(13)12-3/h4-8H,1-3H3,(H,12,13)",QBSJMKIUCUGGNG-UHFFFAOYSA-N,CNC(=O)Oc1ccccc1C(C)C,-2.6841,0.08945,2,G3,193.246,2.528200000000001,55.61470000000004,14.0,2.0,1.0,3.0,2.0,76.0,1.0,0.0,0.0,1.0,38.33,84.08104320463868,2.8972633792489466,320.8184995540784,High,True
B-4235,abate,"InChI=1S/C16H20O6P2S3/c1-17-23(25,18-2)21-13-5-9-15(10-6-13)27-16-11-7-14(8-12-16)22-24(26,19-3)20-4/h5-12H,1-4H3",WWJZWCUNLNYYAU-UHFFFAOYSA-N,CO[P](=S)(OC)Oc1ccc(Sc2ccc(O[P](=S)(OC)OC)cc2)cc1,-6.2375,0.4762500000000003,2,G3,466.47900000000016,5.630000000000004,114.869,27.0,9.0,0.0,11.0,10.0,148.0,2.0,0.0,0.0,2.0,55.38000000000001,173.5125033919799,2.00995144064202,743.5541844393116,Low,False
B-4238,salithion,"InChI=1S/C8H9O3PS/c1-9-12(13)10-6-7-4-2-3-5-8(7)11-12/h2-5H,6H2,1H3",OUNSASXJZHBGAI-UHFFFAOYSA-N,CO[P]1(=S)OCc2ccccc2O1,-3.5714,0.0643,2,G3,216.198,2.466500000000001,53.15300000000003,13.0,4.0,0.0,5.0,1.0,70.0,1.0,0.0,1.0,2.0,27.69,81.87601998649455,2.3475283098099338,366.1617012629048,High,True
B-4243,terbufos,"InChI=1S/C9H21O2PS3/c1-6-10-12(13,11-7-2)15-8-14-9(3,4)5/h6-8H2,1-5H3",XLNZEKHULJKQBA-UHFFFAOYSA-N,CCO[P](=S)(OCC)SCSC(C)(C)C,-4.755,0.2374999999999998,2,G3,288.44,4.506300000000004,77.33900000000004,15.0,5.0,0.0,6.0,7.0,92.0,0.0,0.0,0.0,0.0,18.46,107.17394092095088,4.018684248799224,205.8932213932792,Low,False
B-4245,chlortoluron,"InChI=1S/C10H13ClN2O/c1-7-4-5-8(6-9(7)11)12-10(14)13(2)3/h4-6H,1-3H3,(H,12,14)",JXCGFZXSOMJFOA-UHFFFAOYSA-N,CN(C)C(=O)Nc1ccc(C)c(Cl)c1,-3.4826,0.4049001962075208,3,G5,212.68,2.741920000000001,58.89470000000003,14.0,1.0,1.0,4.0,1.0,76.0,1.0,0.0,0.0,1.0,32.34,88.66565575782023,2.781208374094021,349.9752768616324,High,True
B-4250,fenamiphos,"InChI=1S/C13H22NO3PS/c1-6-16-18(15,14-10(2)3)17-12-7-8-13(19-5)11(4)9-12/h7-10H,6H2,1-5H3,(H,14,15)",ZCJPOPBZHLUFHF-UHFFFAOYSA-N,CCO[P](=O)(NC(C)C)Oc1ccc(SC)c(C)c1,-2.9648,0.0673999999999999,2,G3,303.36400000000003,4.238320000000003,81.09220000000005,19.0,4.0,1.0,6.0,7.0,108.0,1.0,0.0,0.0,1.0,47.56,119.40521038036616,2.9018753958305568,465.20159328759047,High,True
B-4254,thiobencarb,"InChI=1S/C12H16ClNOS/c1-3-14(4-2)12(15)16-9-10-5-7-11(13)8-6-10/h5-8H,3-4,9H2,1-2H3",QHTQREMOGMZHJV-UHFFFAOYSA-N,CCN(CC)C(=O)SCc1ccc(Cl)cc1,-3.9641,0.01705,2,G3,257.786,4.035000000000004,71.06400000000004,16.0,2.0,0.0,4.0,4.0,88.0,1.0,0.0,0.0,1.0,20.31,105.96878782837068,2.4492413621653952,335.3769263952092,Medium,False
B-4269,dimethyl disulfide,InChI=1S/C2H6S2/c1-3-4-2/h1-2H3,WQOXQRCZOLPYPM-UHFFFAOYSA-N,CSSC,-1.4969,0.042010841462471,3,G5,94.204,1.6274,27.029999999999998,4.0,2.0,0.0,2.0,1.0,26.0,0.0,0.0,0.0,0.0,0.0,34.7503752793063,1.9747448713915892,6.0,High,True
B-4271,"2,3-dimethylpyridine","InChI=1S/C7H9N/c1-6-4-3-5-8-7(6)2/h3-5H,1-2H3",HPYNZHMRTTWQTB-UHFFFAOYSA-N,Cc1cccnc1C,0.0938,0.1456,2,G3,107.156,1.69844,33.71099999999999,8.0,1.0,0.0,1.0,0.0,42.0,1.0,0.0,0.0,1.0,12.89,49.38093532923669,3.134861511345448,160.49662946459569,High,True
B-4272,"2,4-dimethylpyridine","InChI=1S/C7H9N/c1-6-3-4-8-7(2)5-6/h3-5H,1-2H3",JYYNAJVZFGKDEQ-UHFFFAOYSA-N,Cc1ccnc(C)c1,0.4471,0.0547052912330141,3,G5,107.156,1.69844,33.71099999999999,8.0,1.0,0.0,1.0,0.0,42.0,1.0,0.0,0.0,1.0,12.89,49.380935329236685,3.077660437970554,164.24662946459569,High,True
B-4273,"2,5-dimethylpyridine","InChI=1S/C7H9N/c1-6-3-4-7(2)8-5-6/h3-5H,1-2H3",XWKFPIODWVPXLX-UHFFFAOYSA-N,Cc1ccc(C)nc1,-0.03,0.2155,2,G3,107.156,1.69844,33.71099999999999,8.0,1.0,0.0,1.0,0.0,42.0,1.0,0.0,0.0,1.0,12.89,49.38093532923669,3.0324555320336755,143.24662946459569,High,True
B-4274,"3,4-dimethylpyridine","InChI=1S/C7H9N/c1-6-3-4-8-5-7(6)2/h3-5H,1-2H3",NURQLCJSMXZBPC-UHFFFAOYSA-N,Cc1ccncc1C,-0.314,0.3365,2,G3,107.156,1.69844,33.71099999999999,8.0,1.0,0.0,1.0,0.0,42.0,1.0,0.0,0.0,1.0,12.89,49.38093532923669,3.134861511345448,160.49662946459569,High,True
B-4275,"3,5-dimethylpyridine","InChI=1S/C7H9N/c1-6-3-7(2)5-8-4-6/h3-5H,1-2H3",HWWYDZCSSYKIAD-UHFFFAOYSA-N,Cc1cncc(C)c1,-0.5115,0.44575,2,G3,107.15599999999998,1.69844,33.71099999999999,8.0,1.0,0.0,1.0,0.0,42.0,1.0,0.0,0.0,1.0,12.89,49.380935329236685,3.077660437970554,164.24662946459569,High,True
B-4282,benzo(f)quinoline,InChI=1S/C13H9N/c1-2-5-11-10(4-1)7-8-13-12(11)6-3-9-14-13/h1-9H,HCAUQPZEWLULFJ-UHFFFAOYSA-N,c1ccc2c(c1)ccc3ncccc23,-3.3574,0.0087000000000001,2,G3,179.22199999999998,3.388000000000001,59.24900000000002,14.0,1.0,0.0,1.0,0.0,66.0,3.0,0.0,0.0,3.0,12.89,82.0143801639139,2.610318687415942,544.2063511621126,High,True
B-4284,isoquinoline,InChI=1S/C9H7N/c1-2-4-9-7-10-6-5-8(9)3-1/h1-7H,AWJUIBRHMBBTKR-UHFFFAOYSA-N,c1ccc2cnccc2c1,-1.456,0.0396232400341491,3,G5,129.16199999999998,2.2348,41.743000000000016,10.0,1.0,0.0,1.0,0.0,48.0,2.0,0.0,0.0,2.0,12.89,59.33271563217868,2.888051601657992,275.7051383449476,High,True
B-4287,diazinon,"InChI=1S/C12H21N2O3PS/c1-6-15-18(19,16-7-2)17-11-8-10(5)13-12(14-11)9(3)4/h8-9H,6-7H2,1-5H3",FHIVAFMUCKRCQO-UHFFFAOYSA-N,CCO[P](=S)(OCC)Oc1cc(C)nc(n1)C(C)C,-3.8813,0.1206499999999999,2,G3,304.35200000000003,3.5847200000000026,79.02300000000004,19.0,6.0,0.0,7.0,7.0,108.0,1.0,0.0,0.0,1.0,53.47,119.51079978829642,2.9903765648588534,458.2877596147708,Medium,False
B-4292,4-hexylresorcinol,"InChI=1S/C12H18O2/c1-2-3-4-5-6-10-7-8-11(13)9-12(10)14/h7-9,13-14H,2-6H2,1H3",WFJIVOKAWHGMBH-UHFFFAOYSA-N,CCCCCCc1ccc(O)cc1O,-2.5895,0.0734016679,2,G3,194.274,3.2206000000000023,57.617600000000046,14.0,2.0,2.0,2.0,5.0,78.0,1.0,0.0,0.0,1.0,40.46,85.20952331026865,2.4244942240332854,281.65026016439094,High,True
B-4294,Diethylstilbestrol,"InChI=1S/C18H20O2/c1-3-17(13-5-9-15(19)10-6-13)18(4-2)14-7-11-16(20)12-8-14/h5-12,19-20H,3-4H2,1-2H3/b18-17+",RGLYKWWBQGJZGM-ISLYRVAYSA-N,CC\C(c1ccc(O)cc1)=C(\CC)c2ccc(O)cc2,-4.3495,0.1397499999999998,2,G3,268.35599999999994,4.828600000000004,83.60960000000004,20.0,2.0,2.0,2.0,4.0,104.0,2.0,0.0,0.0,2.0,40.46,119.57701448414844,2.521517738794992,536.8202783238603,Medium,False
B-4301,"1,4-benzenediamine","InChI=1S/C6H8N2/c7-5-1-2-6(8)4-3-5/h1-4H,7-8H2",CBCKQZAAMUWICA-UHFFFAOYSA-N,Nc1ccc(N)cc1,-0.4658,0.0600459024080357,4,G5,108.144,0.8510000000000002,35.2668,8.0,2.0,2.0,2.0,0.0,42.0,1.0,0.0,0.0,1.0,52.04,48.11118451352239,3.0324555320336755,145.38833891467198,High,True
B-4311,phenylhydroxylamine,"InChI=1S/C6H7NO/c8-7-6-4-2-1-3-5-6/h1-5,7-8H",CKRZKMFTZCFYGB-UHFFFAOYSA-N,ONc1ccccc1,-0.4359,0.15055,2,G3,109.12799999999996,1.4876999999999998,31.8512,8.0,2.0,2.0,2.0,1.0,42.0,1.0,0.0,0.0,1.0,32.26,47.729537554779,2.8320858350070908,149.87452390041133,High,True
B-4348,furathiocarb,"InChI=1S/C18H26N2O5S/c1-6-7-11-23-16(21)19(4)26-20(5)17(22)24-14-10-8-9-13-12-18(2,3)25-15(13)14/h8-10H,6-7,11-12H2,1-5H3",HAWJXYBZNNRMNO-UHFFFAOYSA-N,CCCCOC(=O)N(C)SN(C)C(=O)Oc1cccc2CC(C)(C)Oc12,-4.5412,0.0209000000000001,2,G3,382.48200000000014,4.262400000000004,100.25000000000009,26.0,6.0,0.0,8.0,6.0,144.0,1.0,0.0,1.0,2.0,68.31,158.3820896143642,1.9232440436168907,664.9815798262047,Low,False