ID,Name,InChI,InChIKey,SMILES,Solubility,SD,Ocurrences,Group,MolWt,MolLogP,MolMR,HeavyAtomCount,NumHAcceptors,NumHDonors,NumHeteroatoms,NumRotatableBonds,NumValenceElectrons,NumAromaticRings,NumSaturatedRings,NumAliphaticRings,RingCount,TPSA,LabuteASA,BalabanJ,BertzCT,bin,is_sol
A-1004,"2,4-di-tert-butylphenol","InChI=1S/C14H22O/c1-13(2,3)10-7-8-12(15)11(9-10)14(4,5)6/h7-9,15H,1-6H3",ICKWICRCANNIBI-UHFFFAOYSA-N,CC(C)(C)c1ccc(O)c(c1)C(C)(C)C,-3.7960463334,0.0127731666999997,2,G3,206.32899999999995,3.987200000000003,65.50680000000006,15.0,1.0,1.0,1.0,0.0,84.0,1.0,0.0,0.0,1.0,20.23,93.14517378686584,3.2993579461545743,350.581941709556,Medium,False
A-1005,3-(4-tert-butylphenyl)-2-methylpropanal,"InChI=1S/C14H20O/c1-11(10-15)9-12-5-7-13(8-6-12)14(2,3)4/h5-8,10-11H,9H2,1-4H3",SDQFDHOLCGWZPU-UHFFFAOYSA-N,CC(Cc1ccc(cc1)C(C)(C)C)C=O,-3.7917820609,0.0673492869499998,2,G3,204.313,3.361600000000002,64.07400000000004,15.0,1.0,0.0,1.0,3.0,82.0,1.0,0.0,0.0,1.0,17.07,92.5124621347136,2.768132115506002,316.1870914248574,Medium,False
A-1011,"2,2',2'',2'''-(ethane-1,2-diyldinitrilo)tetraacetonitrile",InChI=1S/C10H12N6/c11-1-5-15(6-2-12)9-10-16(7-3-13)8-4-14/h5-10H2,FDWRKVKXYZRYOD-UHFFFAOYSA-N,N#CCN(CCN(CC#N)CC#N)CC#N,-2.8204043469,0.0158370844999997,2,G3,216.248,-0.31528,55.33200000000003,16.0,6.0,0.0,6.0,7.0,82.0,0.0,0.0,0.0,0.0,101.64,95.11371612368062,4.065699413638532,281.4664441333382,High,True
A-1014,"1,1-difluoroethane","InChI=1S/C2H4F2/c1-2(3)4/h2H,1H3",NPNPZTNLOVBDOC-UHFFFAOYSA-N,CC(F)F,-1.3147228436,0.0289959735,2,G3,66.05,1.2714,11.678000000000004,4.0,0.0,0.0,2.0,0.0,26.0,0.0,0.0,0.0,0.0,0.0,23.435263948078628,2.3237900077244498,8.75488750216347,High,True
A-1015,"3,7-dimethyloctan-3-ol","InChI=1S/C10H22O/c1-5-10(4,11)8-6-7-9(2)3/h9,11H,5-8H2,1-4H3",DLHQZZUEERVIGQ-UHFFFAOYSA-N,CCC(C)(O)CCCC(C)C,-2.6942897822000003,0.0511525224500002,2,G3,158.28499999999997,2.973700000000002,49.60380000000003,11.0,1.0,1.0,1.0,5.0,68.0,0.0,0.0,0.0,0.0,20.23,70.81796380959503,3.376278757117517,95.04589952780503,High,True
A-1032,2-[(E)-2-(1-cyano-1-methylethyl)diazen-1-yl]-2-methylpropanenitrile,"InChI=1S/C8H12N4/c1-7(2,5-9)11-12-8(3,4)6-10/h1-4H3",OZAIFHULBGXAKX-UHFFFAOYSA-N,CC(C)(N=NC(C)(C)C#N)C#N,-2.7132509977,0.0209570757499999,2,G3,164.212,2.04296,44.24000000000002,12.0,4.0,0.0,4.0,2.0,64.0,0.0,0.0,0.0,0.0,72.3,72.52578303603232,4.502454436161649,233.7628977173992,High,True
A-1051,"1,4-dimethyl benzene-1,4-dicarboxylate","InChI=1S/C10H10O4/c1-13-9(11)7-3-5-8(6-4-7)10(12)14-2/h3-6H,1-2H3",WOZVHXUHUFLZGK-UHFFFAOYSA-N,COC(=O)c1ccc(cc1)C(=O)OC,-3.796856222,0.1822521048414581,4,G5,194.186,1.2597999999999998,49.12100000000002,14.0,4.0,0.0,4.0,2.0,74.0,1.0,0.0,0.0,1.0,52.60000000000001,81.44130623618467,2.8864821283777804,304.64456038916694,Medium,False
A-1058,"3,7-dimethyloct-6-en-1-ol","InChI=1S/C10H20O/c1-9(2)5-4-6-10(3)7-8-11/h5,10-11H,4,6-8H2,1-3H3/t10-/m1/s1",QMVPMAAFGQKVCJ-SNVBAGLBSA-N,C[C@@H](CCO)CCC=C(C)C,-2.7067344575,0.0050085603999998,2,G3,156.26899999999998,2.7513000000000014,49.531800000000025,11.0,1.0,1.0,1.0,5.0,66.0,0.0,0.0,0.0,0.0,20.23,70.12836077741078,3.3063817487883043,112.0411847243922,High,True
A-1062,thiophene,InChI=1S/C4H4S/c1-2-4-5-3-1/h1-4H,YTPLMLYBLZKORZ-UHFFFAOYSA-N,s1cccc1,-1.4450110492,0.0575055245999999,2,G3,84.143,1.7481,24.319,5.0,1.0,0.0,1.0,0.0,26.0,1.0,0.0,0.0,1.0,0.0,35.07176638990846,3.1250000000000004,60.12481811269772,High,True
A-1065,4-[2-(4-hydroxyphenyl)propan-2-yl]phenol,"InChI=1S/C15H16O2/c1-15(2,11-3-7-13(16)8-4-11)12-5-9-14(17)10-6-12/h3-10,16-17H,1-2H3",IISBACLAFKSPIT-UHFFFAOYSA-N,CC(C)(c1ccc(O)cc1)c2ccc(O)cc2,-2.8799222949,0.1862542247492296,4,G5,228.291,3.423700000000002,68.34160000000003,17.0,2.0,2.0,2.0,2.0,88.0,2.0,0.0,0.0,2.0,40.46,101.17179117314286,2.412580781491558,447.9499584541679,High,True
A-1068,Fusel oil,"InChI=1S/C5H12O/c1-5(2)3-4-6/h5-6H,3-4H2,1-2H3",PHTQWCKDNZKARW-UHFFFAOYSA-N,CC(C)CCO,-0.4681010618999999,0.2260901181034371,3,G5,88.14999999999999,1.0248,26.54079999999999,6.0,1.0,1.0,1.0,2.0,38.0,0.0,0.0,0.0,0.0,20.23,38.99325323761199,2.6272148478988635,25.11941547876375,High,True
A-1070,"1,3-benzothiazole",InChI=1S/C7H5NS/c1-2-4-7-6(3-1)8-5-9-7/h1-5H,IOJUPLGTWVMSFF-UHFFFAOYSA-N,s1cnc2ccccc12,-1.6538265258000002,0.0781736004500001,2,G3,135.19099999999997,2.2963000000000005,39.62000000000002,9.0,2.0,0.0,2.0,0.0,44.0,2.0,0.0,0.0,2.0,12.89,56.97307890259017,2.954659790285104,282.8939367663436,High,True
A-1073,3-nitrobenzoic acid,"InChI=1S/C7H5NO4/c9-7(10)5-2-1-3-6(4-5)8(11)12/h1-4H,(H,9,10)",AFPHTEQTJZKQAQ-UHFFFAOYSA-N,OC(=O)c1cccc(c1)[N+]([O-])=O,-1.7459071723,0.0523660280083443,5,G5,167.11999999999995,1.293,40.05570000000001,12.0,3.0,1.0,5.0,2.0,62.0,1.0,0.0,0.0,1.0,80.44,67.40507680863314,3.121805775248301,304.683190204761,High,True
A-1077,"2-hydroxy-1,2-diphenylethan-1-one","InChI=1S/C14H12O2/c15-13(11-7-3-1-4-8-11)14(16)12-9-5-2-6-10-12/h1-10,13,15H",ISAOCJYIOMOJEB-UHFFFAOYSA-N,OC(c1ccccc1)C(=O)c2ccccc2,-2.8497223519,0.4851388240499998,2,G3,212.248,2.602900000000001,62.17430000000004,16.0,2.0,1.0,2.0,3.0,80.0,2.0,0.0,0.0,2.0,37.3,94.174137406594,2.2393989303204465,462.6087192277259,High,True
A-1080,octan-1-ol,"InChI=1S/C8H18O/c1-2-3-4-5-6-7-8-9/h9H,2-8H2,1H3",KBPLFHHGFOOTCA-UHFFFAOYSA-N,CCCCCCCCO,-2.6375931207,0.2613764444365122,6,G5,130.23100000000002,2.3392000000000013,40.4618,9.0,1.0,1.0,1.0,6.0,56.0,0.0,0.0,0.0,0.0,20.23,58.08807958080182,2.595082706793886,37.83229392178728,High,True
A-1085,"methyl 2-[(4-amino-3,5-dichloro-6-fluoropyridin-2-yl)oxy]acetate","InChI=1S/C8H7Cl2FN2O3/c1-15-3(14)2-16-8-5(10)6(12)4(9)7(11)13-8/h2H2,1H3,(H2,12,13)",GIIKFBXVGYJLEK-UHFFFAOYSA-N,COC(=O)COc1nc(F)c(Cl)c(N)c1Cl,-3.9512810281,0.01570423215,2,G3,269.059,1.6615,56.13840000000001,16.0,5.0,1.0,8.0,3.0,88.0,1.0,0.0,0.0,1.0,74.44,100.2464485563931,2.9314149827025315,428.2347167860317,Medium,False
A-1091,"2,6-di-tert-butylphenol","InChI=1S/C14H22O/c1-13(2,3)10-8-7-9-11(12(10)15)14(4,5)6/h7-9,15H,1-6H3",DKCPKDPYUFEZCP-UHFFFAOYSA-N,CC(C)(C)c1cccc(c1O)C(C)(C)C,-4.7135873776,0.1033333694058104,4,G5,206.32899999999995,3.987200000000003,65.50680000000006,15.0,1.0,1.0,1.0,0.0,84.0,1.0,0.0,0.0,1.0,20.23,93.14517378686584,3.368901573147506,318.331941709556,Low,False
A-1100,"1,1'-ethane-1,1-diyldibenzene","InChI=1S/C14H14/c1-12(13-8-4-2-5-9-13)14-10-6-3-7-11-14/h2-12H,1H3",BSZXAFXFTLXUFV-UHFFFAOYSA-N,CC(c1ccccc1)c2ccccc2,-4.6925039386,0.1540273472425748,5,G5,182.266,3.8384000000000023,60.40100000000004,14.0,0.0,0.0,0.0,2.0,70.0,2.0,0.0,0.0,2.0,0.0,85.21838155435421,2.2962461305928525,335.79776893714006,Low,False
A-1113,"(diphenylphosphoroso)(2,4,6-trimethylphenyl)methanone","InChI=1S/C22H21O2P/c1-16-14-17(2)21(18(3)15-16)22(23)25(24,19-10-6-4-7-11-19)20-12-8-5-9-13-20/h4-15H,1-3H3",VFHVQBAGLAREND-UHFFFAOYSA-N,Cc1cc(C)c(c(C)c1)C(=O)[P](=O)(c2ccccc2)c3ccccc3,-5.010576791,0.2549568840499998,2,G3,348.382,4.766160000000004,104.74200000000005,25.0,2.0,0.0,3.0,4.0,126.0,3.0,0.0,0.0,3.0,34.14,148.4564819893486,2.274162133336069,893.3272097194056,Low,False
A-1126,2-ethylhexyl 2-methylprop-2-enoate,"InChI=1S/C12H22O2/c1-5-7-8-11(6-2)9-14-12(13)10(3)4/h11H,3,5-9H2,1-2,4H3",WDQMWEYDKDCEHT-UHFFFAOYSA-N,CCCCC(CC)COC(=O)C(C)=C,-4.8059741607,0.2821354565984809,3,G5,198.30599999999995,3.3221000000000016,59.07900000000004,14.0,2.0,0.0,2.0,7.0,82.0,0.0,0.0,0.0,0.0,26.3,87.33907858355862,3.714658841588713,184.76075065686047,Low,False
A-1129,"Alcohols, C12-13","InChI=1S/C12H26O.CH4/c1-2-3-4-5-6-7-8-9-10-11-12-13;/h13H,2-12H2,1H3;1H4",WWYHAQDAMPXWSI-UHFFFAOYSA-N,C.CCCCCCCCCCCCO,-4.8148101896,0.0555752260500002,2,G3,202.38199999999995,4.535700000000005,65.66080000000005,14.0,1.0,1.0,1.0,10.0,88.0,0.0,0.0,0.0,0.0,20.23,90.91862130631412,0.0,71.30474818299281,Low,False
A-1137,2-ethylhexyl 2-{[bis({2-[(2-ethylhexyl)oxy]-2-oxoethyl}sulfanyl)(methyl)stannyl]sulfanyl}acetate,"InChI=1S/3C10H20O2S.CH3.Sn/c3*1-3-5-6-9(4-2)7-12-10(11)8-13;;/h3*9,13H,3-8H2,1-2H3;1H3;/q;;;;+3/p-3",ACRNSUGLVQJCOM-UHFFFAOYSA-K,CCCCC(CC)COC(=O)CS[Sn](C)(SCC(=O)OCC(CC)CCCC)SCC(=O)OCC(CC)CCCC,-5.3942922935,0.195463383186199,4,G5,743.7269999999997,9.033500000000004,181.7869999999994,41.0,9.0,0.0,10.0,27.0,242.0,0.0,0.0,0.0,0.0,78.90000000000002,263.85922028684314,5.023957941737601,608.4214831345325,Low,False
A-1140,tris[oxalato(2-)]dilutetium,"InChI=1S/3C2H2O4.2Lu/c3*3-1(4)2(5)6;;/h3*(H,3,4)(H,5,6);;/q;;;2*+3/p-6",WBXXVIQNIMIONY-UHFFFAOYSA-H,[Lu+3].[Lu+3].[O-]C(=O)C([O-])=O.[O-]C(=O)C([O-])=O.[O-]C(=O)C([O-])=O,-5.3110386285,0.0277448431718879,4,G5,613.9880000000003,-10.5414,30.041999999999994,20.0,12.0,0.0,14.0,0.0,126.0,0.0,0.0,0.0,0.0,240.78,166.9182078919772,-5.3571428295918366e-08,281.0851869626513,Low,False
A-1141,(3-phenoxyphenyl)methanol,"InChI=1S/C13H12O2/c14-10-11-5-4-8-13(9-11)15-12-6-2-1-3-7-12/h1-9,14H,10H2",KGANAERDZBAECK-UHFFFAOYSA-N,OCc1cccc(Oc2ccccc2)c1,-2.8258731416,0.0416865853500003,2,G3,200.237,2.9712000000000005,58.88080000000004,15.0,2.0,1.0,2.0,3.0,76.0,2.0,0.0,0.0,2.0,29.46,88.7612184216605,2.1735976283693983,423.56090337132014,High,True
A-1143,azacyclotridecan-2-one,"InChI=1S/C12H23NO/c14-12-10-8-6-4-2-1-3-5-7-9-11-13-12/h1-11H2,(H,13,14)",JHWNWJKBPDFINM-UHFFFAOYSA-N,O=C1CCCCCCCCCCCN1,-2.8195043204,0.1650447711384221,4,G5,197.322,3.0172000000000008,59.17970000000005,14.0,1.0,1.0,2.0,0.0,82.0,0.0,1.0,1.0,1.0,29.1,87.45916741631484,2.1473851382465647,140.40071895207583,High,True
A-1144,methyl 3-phenylacrylate,"InChI=1S/C10H10O2/c1-12-10(11)8-7-9-5-3-2-4-6-9/h2-8H,1H3/b8-7+",CCRCUPLGCSFEDV-BQYQJAHWSA-N,COC(=O)\C=C\c1ccccc1,-2.7343475301,0.035763211086825,3,G5,162.188,1.8728,47.492000000000026,12.0,2.0,0.0,2.0,2.0,62.0,1.0,0.0,0.0,1.0,26.3,71.47663587444978,2.637870167687777,275.14987048988627,High,True
A-1145,"2-methyl-4,6-bis(methylsulfanyl)benzene-1,3-diamine; 4-methyl-2,6-bis(methylsulfanyl)benzene-1,3-diamine","InChI=1S/C9H14N2S2/c1-5-8(10)6(12-2)4-7(13-3)9(5)11/h4H,10-11H2,1-3H3",TXDBDYPHJXUHEO-UHFFFAOYSA-N,CSc1cc(SC)c(N)c(C)c1N,-2.8569254583,0.1323506247499999,2,G3,214.35899999999995,2.6032200000000003,63.56580000000001,13.0,4.0,2.0,4.0,2.0,72.0,1.0,0.0,0.0,1.0,52.04,87.4522309074427,3.3617208875512854,295.6310072666452,High,True
A-1156,ethenylbenzene,"InChI=1S/C8H8/c1-2-8-6-4-3-5-7-8/h2-7H,1H2",PPBRXRYQALVLMV-UHFFFAOYSA-N,C=Cc1ccccc1,-2.5552696161000004,0.1048084297292434,7,G5,104.15199999999996,2.3296,36.53300000000001,8.0,0.0,0.0,0.0,1.0,40.0,1.0,0.0,0.0,1.0,0.0,49.47168431610592,2.991046914684621,162.65300142116237,High,True
A-1158,"2,3,5,6-tetrachloropyridine",InChI=1S/C5HCl4N/c6-2-1-3(7)5(9)10-4(2)8/h1H,FATBKZJZAHWCSL-UHFFFAOYSA-N,Clc1cc(Cl)c(Cl)nc1Cl,-3.8614246907,0.0603451898,2,G3,216.882,3.6952,44.277,10.0,1.0,0.0,5.0,0.0,54.0,1.0,0.0,0.0,1.0,12.89,77.86411600797017,3.2824629074535228,209.82001790212,Medium,False
A-1174,3-phenylprop-2-en-1-yl acetate,"InChI=1S/C11H12O2/c1-10(12)13-9-5-8-11-6-3-2-4-7-11/h2-8H,9H2,1H3/b8-5+",WJSDHUCWMSHDCR-VMPITWQZSA-N,CC(=O)OC\C=C\c1ccccc1,-2.7927245342,0.0211129987499998,2,G3,176.215,2.2629,52.10900000000003,13.0,2.0,0.0,2.0,3.0,68.0,1.0,0.0,0.0,1.0,26.3,77.84157798884641,2.3677193200379056,288.21840549259923,High,True
A-1186,"11,17,21-trihydroxypregn-4-ene-3,20-dione","InChI=1S/C21H30O5/c1-19-7-5-13(23)9-12(19)3-4-14-15-6-8-21(26,17(25)11-22)20(15,2)10-16(24)18(14)19/h9,14-16,18,22,24,26H,3-8,10-11H2,1-2H3/t14-,15-,16-,18+,19-,20-,21-/m0/s1",JYGXADMDTFJGBT-VWUMJDOOSA-N,C[C@]12CCC(=O)C=C1CC[C@H]3[C@@H]4CC[C@](O)(C(=O)CO)[C@@]4(C)C[C@H](O)[C@H]23,-3.1121092438,0.0290046218999999,2,G3,362.4660000000001,1.7816,95.14240000000004,26.0,5.0,3.0,5.0,2.0,144.0,0.0,3.0,4.0,4.0,94.83,154.03091112613612,1.7350832012021693,683.8889217536757,High,True
A-1197,4-tert-butylcyclohexan-1-ol,"InChI=1S/C10H20O/c1-10(2,3)8-4-6-9(11)7-5-8/h8-9,11H,4-7H2,1-3H3",CCOQPGVQAWPUPE-UHFFFAOYSA-N,CC(C)(C)C1CCC(O)CC1,-3.1032621252,0.1690260899143181,4,G5,156.26899999999995,2.583600000000001,47.41980000000002,11.0,1.0,1.0,1.0,0.0,66.0,0.0,1.0,1.0,1.0,20.23,69.8121326560658,2.3936150485089414,115.3246918518097,High,True
A-1205,1-chloro-3-nitrobenzene,InChI=1S/C6H4ClNO2/c7-5-2-1-3-6(4-5)8(9)10/h1-4H,KMAQZIILEGKYQZ-UHFFFAOYSA-N,[O-][N+](=O)c1cccc(Cl)c1,-2.7612722995,0.07745098,2,G3,157.55599999999998,2.2482000000000006,38.106400000000015,10.0,2.0,0.0,4.0,1.0,52.0,1.0,0.0,0.0,1.0,43.14,62.38764506887844,3.069899265759275,261.67965837655686,High,True
A-1209,"1,2-dichloropropane","InChI=1S/C3H6Cl2/c1-3(5)2-4/h3H,2H2,1H3",KNKRKFALVUDBJE-UHFFFAOYSA-N,CC(Cl)CCl,-1.6216647134,0.0078971335999999,2,G3,112.987,1.8525,26.03499999999999,5.0,0.0,0.0,2.0,1.0,32.0,0.0,0.0,0.0,0.0,0.0,42.07566771038611,2.5395388613593903,18.854752972273342,High,True
A-1211,N-ethylaniline,"InChI=1S/C8H11N/c1-2-9-8-6-4-3-5-7-8/h3-7,9H,2H2,1H3",OJGMBLNIHDZDGS-UHFFFAOYSA-N,CCNc1ccccc1,-1.6520779355,0.0246733607999999,2,G3,121.18299999999996,2.1184,40.60570000000001,9.0,1.0,1.0,1.0,2.0,48.0,1.0,0.0,0.0,1.0,12.03,55.71114953189822,2.61489994009295,157.4784207656209,High,True
A-1212,"1,1'-oxybis(3-methylbutane)","InChI=1S/C10H22O/c1-9(2)5-7-11-8-6-10(3)4/h9-10H,5-8H2,1-4H3",AQZGPSLYZOOYQP-UHFFFAOYSA-N,CC(C)CCOCCC(C)C,-3.7601070667,0.4308535333500001,2,G3,158.285,3.095200000000002,49.72900000000003,11.0,1.0,0.0,1.0,6.0,68.0,0.0,0.0,0.0,0.0,9.23,71.13727528690589,2.909205095488745,66.9419624661572,Medium,False
A-1214,"1,2-dichloro-4-methylbenzene","InChI=1S/C7H6Cl2/c1-5-2-3-6(8)7(9)4-5/h2-4H,1H3",WYUIWKFIFOJVKW-UHFFFAOYSA-N,Cc1ccc(Cl)c(Cl)c1,-3.7755457257,0.0081771371500001,2,G3,161.031,3.301820000000001,41.19900000000002,9.0,0.0,0.0,2.0,0.0,48.0,1.0,0.0,0.0,1.0,0.0,64.40287768765691,3.171678030440916,218.15617759993404,Medium,False
A-1220,"(4-(4-aminophenyl)(4-iminocyclohexa-2,5-dienylidene)methyl)-2-methylaniline hydrochloride","InChI=1S/C20H19N3.ClH/c1-13-12-16(6-11-19(13)23)20(14-2-7-17(21)8-3-14)15-4-9-18(22)10-5-15;/h2-12,23H,21-22H2,1H3;1H",AXDJCCTWPBKUKL-UHFFFAOYSA-N,[H+].[Cl-].CC1=CC(C=CC1=N)=C(c2ccc(N)cc2)c3ccc(N)cc3,-2.1054831912,0.2524519297430859,3,G5,337.85400000000004,1.3052699999999988,99.4665,24.0,3.0,3.0,4.0,2.0,122.0,2.0,0.0,1.0,3.0,75.89,149.33641800598704,1.5624994300002157e-06,800.0149337345614,High,True
A-1228,3-aminophenol,"InChI=1S/C6H7NO/c7-5-2-1-3-6(8)4-5/h1-4,8H,7H2",CWLKGDAVCFYWJK-UHFFFAOYSA-N,Nc1cccc(O)c1,-0.6229628479,0.0614307496492846,5,G5,109.128,0.9744,32.5192,8.0,2.0,2.0,2.0,0.0,42.0,1.0,0.0,0.0,1.0,46.25,47.56552756870569,3.077660437970554,168.38833891467198,High,True
A-1234,cyclododecanone,InChI=1S/C12H22O/c13-12-10-8-6-4-2-1-3-5-7-9-11-12/h1-11H2,SXVPOSFURRDKBO-UHFFFAOYSA-N,O=C1CCCCCCCCCCC1,-3.8458299965,0.1191195828999998,2,G3,182.307,3.8602000000000034,55.79400000000005,13.0,1.0,0.0,1.0,0.0,76.0,0.0,1.0,1.0,1.0,17.07,81.9093052327068,2.144560008407528,126.05990292969187,Medium,False
A-1246,3-chloro-4-methylaniline,"InChI=1S/C7H8ClN/c1-5-2-3-6(9)4-7(5)8/h2-4H,9H2,1H3",RQKFYFNZSHWXAW-UHFFFAOYSA-N,Cc1ccc(N)cc1Cl,-1.7531263116999998,0.0126529325999998,2,G3,141.601,2.23062,40.60140000000001,9.0,1.0,1.0,2.0,0.0,48.0,1.0,0.0,0.0,1.0,26.02,59.43950215778796,3.171678030440915,220.15617759993404,High,True
A-1254,"2,4-dichloro-1-methylbenzene","InChI=1S/C7H6Cl2/c1-5-2-3-6(8)4-7(5)9/h2-4H,1H3",FUNUTBJJKQIVSY-UHFFFAOYSA-N,Cc1ccc(Cl)cc1Cl,-3.8089694812,0.2474250108500002,2,G3,161.031,3.301820000000001,41.19900000000002,9.0,0.0,0.0,2.0,0.0,48.0,1.0,0.0,0.0,1.0,0.0,64.40287768765691,3.171678030440915,218.15617759993404,Medium,False
A-1258,"(2,4-dichlorophenyl)acetic acid","InChI=1S/C8H6Cl2O2/c9-6-2-1-5(3-8(11)12)7(10)4-6/h1-2,4H,3H2,(H,11,12)",GXMWLJKTGBZMBH-UHFFFAOYSA-N,OC(=O)Cc1ccc(Cl)cc1Cl,-2.9191416399000003,0.0881590670822446,3,G5,205.04,2.6205000000000007,47.801800000000014,12.0,1.0,1.0,4.0,2.0,64.0,1.0,0.0,0.0,1.0,37.3,79.7235756542933,2.9348021246299894,309.92621196610224,High,True
A-1259,2-(chloromethyl)oxirane; 4-[2-(4-hydroxyphenyl)propan-2-yl]phenol,"InChI=1S/C15H16O2.C3H5ClO/c1-15(2,11-3-7-13(16)8-4-11)12-5-9-14(17)10-6-12;4-1-3-2-5-3/h3-10,16-17H,1-2H3;3H,1-2H2",KUBDPQJOLOUJRM-UHFFFAOYSA-N,CC(C)(c1ccc(O)cc1)c2ccc(O)cc2.ClCC3CO3,-5.0291347649,0.0327507743999997,2,G3,320.81600000000014,4.0477000000000025,88.80160000000004,22.0,3.0,2.0,4.0,3.0,118.0,2.0,1.0,1.0,3.0,52.99,135.68342897272123,2.985489940389552e-07,539.2342629459157,Low,False
A-1261,Zirconium propionate,"InChI=1S/C3H6O2.Zr/c1-2-3(4)5;/h2H2,1H3,(H,4,5);/q;+4/p-1",TVCBSVKTTHLKQC-UHFFFAOYSA-M,[Zr+4].CCC([O-])=O,-2.8232791914,0.3144585809,2,G3,164.295,-0.8562000000000001,15.298000000000002,6.0,2.0,0.0,3.0,1.0,30.0,0.0,0.0,0.0,0.0,40.13,55.67314869945338,0.0,44.057856410969926,High,True
A-1268,1-chloro-4-nitrobenzene,InChI=1S/C6H4ClNO2/c7-5-1-3-6(4-2-5)8(9)10/h1-4H,CZGCEKJOLUNIFY-UHFFFAOYSA-N,[O-][N+](=O)c1ccc(Cl)cc1,-2.8118286729000004,0.1361942370318745,5,G5,157.55599999999998,2.2482,38.106400000000015,10.0,2.0,0.0,4.0,1.0,52.0,1.0,0.0,0.0,1.0,43.14,62.38764506887844,3.003400684579818,244.4296583765569,High,True
A-1269,4-(propan-2-yl)benzaldehyde,"InChI=1S/C10H12O/c1-8(2)10-5-3-9(7-11)4-6-10/h3-8H,1-2H3",WTWBUQJHJGUZCY-UHFFFAOYSA-N,CC(C)c1ccc(C=O)cc1,-2.7852565821,0.3071968631999999,2,G3,148.20499999999998,2.6225000000000014,45.91850000000003,11.0,1.0,0.0,1.0,2.0,58.0,1.0,0.0,0.0,1.0,17.07,67.05269367712715,2.90982279990154,233.5546192881468,High,True
A-1276,nonanedioic acid,"InChI=1S/C9H16O4/c10-8(11)6-4-2-1-3-5-7-9(12)13/h1-7H2,(H,10,11)(H,12,13)",BDJRBEYXGGNYIS-UHFFFAOYSA-N,OC(=O)CCCCCCCC(O)=O,-1.8944614494,0.0627692752999999,2,G3,188.223,1.8863,47.59060000000003,13.0,2.0,2.0,4.0,8.0,76.0,0.0,0.0,0.0,0.0,74.6,77.570299647482,2.9961049979124525,146.99763683370963,High,True
A-1286,"1,3-diphenylthiourea","InChI=1S/C13H12N2S/c16-13(14-11-7-3-1-4-8-11)15-12-9-5-2-6-10-12/h1-10H,(H2,14,15,16)",FCSHMCFRCYZTRQ-UHFFFAOYSA-N,S=C(Nc1ccccc1)Nc2ccccc2,-3.9716884266,0.0154542421409753,3,G5,228.32,3.4955000000000016,72.72740000000003,16.0,1.0,2.0,3.0,2.0,80.0,2.0,0.0,0.0,2.0,24.06,100.3119440543786,1.9521941477943936,410.3735146257326,Medium,False
A-1287,"estr-5(10)-ene-3,17-dione","InChI=1S/C18H24O2/c1-18-9-8-14-13-5-3-12(19)10-11(13)2-4-15(14)16(18)6-7-17(18)20/h14-16H,2-10H2,1H3/t14-,15-,16+,18+/m1/s1",RORYLAUXKSWMQL-CBZIJGRNSA-N,C[C@]12CC[C@H]3[C@@H](CCC4=C3CCC(=O)C4)[C@@H]1CCC2=O,-4.0549767292,0.0092417028500002,2,G3,272.388,3.841400000000003,77.17000000000004,20.0,2.0,0.0,2.0,0.0,108.0,0.0,2.0,4.0,4.0,34.14,120.55338352635827,1.6680257631301296,515.5112639294834,Medium,False
A-1288,1-bromopropane,"InChI=1S/C3H7Br/c1-2-3-4/h2-3H2,1H3",CYNYIHKIEHGYOZ-UHFFFAOYSA-N,CCCBr,-1.7107562487,0.0142593936501672,3,G5,122.993,1.7913,24.08499999999999,4.0,0.0,0.0,1.0,1.0,26.0,0.0,0.0,0.0,0.0,0.0,35.33668286226413,1.9747448713915892,5.245112497836532,High,True
A-1290,Fluocortolone,"InChI=1S/C22H29FO4/c1-11-6-14-13-8-16(23)15-7-12(25)4-5-21(15,2)20(13)17(26)9-22(14,3)19(11)18(27)10-24/h4-5,7,11,13-14,16-17,19-20,24,26H,6,8-10H2,1-3H3/t11-,13+,14+,16+,17+,19-,20-,21+,22+/m1/s1",GAKMQHDJQHZUTJ-ULHLPKEOSA-N,C[C@@H]1C[C@H]2[C@@H]3C[C@H](F)C4=CC(=O)C=C[C@]4(C)[C@H]3[C@@H](O)C[C@]2(C)[C@H]1C(=O)CO,-3.2037371554000003,0.0628588017022718,3,G5,376.4680000000002,2.6367000000000016,98.41460000000004,27.0,4.0,2.0,5.0,2.0,148.0,0.0,3.0,4.0,4.0,74.6,159.07755185907865,1.7725182385534797,742.5948094363654,High,True
A-1304,diphenylmethanone,InChI=1S/C13H10O/c14-13(11-7-3-1-4-8-11)12-9-5-2-6-10-12/h1-10H,RWCCWEUUXYIKHB-UHFFFAOYSA-N,O=C(c1ccccc1)c2ccccc2,-3.882202908,0.379151454,2,G3,182.222,2.917600000000001,56.316500000000026,14.0,1.0,0.0,1.0,2.0,68.0,2.0,0.0,0.0,2.0,17.07,83.01496154000138,2.348637604509715,376.003255415297,Medium,False
A-1308,butylbenzene,"InChI=1S/C10H14/c1-3-9(2)10-7-5-4-6-8-10/h4-9H,3H2,1-2H3",ZJMWRROPUADPEA-UHFFFAOYSA-N,CCC(C)c1ccccc1,-3.7586078484,0.2643238784657511,7,G5,134.22199999999998,3.2001000000000017,45.14800000000003,10.0,0.0,0.0,0.0,2.0,54.0,1.0,0.0,0.0,1.0,0.0,62.89117157708339,2.746978188530898,176.4896154807834,Medium,False