ID,Name,InChI,InChIKey,SMILES,Solubility,SD,Ocurrences,Group,MolWt,MolLogP,MolMR,HeavyAtomCount,NumHAcceptors,NumHDonors,NumHeteroatoms,NumRotatableBonds,NumValenceElectrons,NumAromaticRings,NumSaturatedRings,NumAliphaticRings,RingCount,TPSA,LabuteASA,BalabanJ,BertzCT,bin,is_sol
G-640,Ethalfluralin,"InChI=1S/C13H14F3N3O4/c1-4-17(7-8(2)3)12-10(18(20)21)5-9(13(14,15)16)6-11(12)19(22)23/h5-6H,2,4,7H2,1,3H3",PTFJIKYUEPWBMS-UHFFFAOYSA-N,CCN(CC(C)=C)c1c(cc(cc1N(=O)=O)C(F)(F)F)N(=O)=O,-6.124,0.0721237978910029,3,G5,333.266,3.924200000000004,77.4538,23.0,5.0,0.0,10.0,6.0,126.0,1.0,0.0,0.0,1.0,89.51999999999998,128.8587862120706,3.740757894672684,623.3502087975944,Low,False
G-659,Ethyl hexanoate,"InChI=1S/C8H16O2/c1-3-5-6-7-8(9)10-4-2/h3-7H2,1-2H3",SHZIWNPUGXLXDT-UHFFFAOYSA-N,CCCCCC(=O)OCC,-2.35,0.0218199195435933,3,G5,144.21399999999997,2.1298000000000004,40.775000000000006,10.0,2.0,0.0,2.0,5.0,60.0,0.0,0.0,0.0,0.0,26.3,62.568913158156434,3.052375189045708,89.25838096618138,High,True
G-688,Flucytosine,"InChI=1S/C4H4FN3O/c5-2-1-7-4(9)8-3(2)6/h1H,(H3,6,7,8,9)",XRECTZIEBJDKEO-UHFFFAOYSA-N,Nc1nc(=O)[nH]cc1F,-0.972,0.0480964561799262,3,G5,129.09399999999997,-0.5088000000000001,29.228100000000005,9.0,3.0,2.0,5.0,0.0,48.0,1.0,0.0,0.0,1.0,71.77,49.53764728137271,3.3360928870055955,268.7604122853712,High,True
G-731,hydrochlorothiazide,"InChI=1S/C7H8ClN3O4S2/c8-4-1-5-7(2-6(4)16(9,12)13)17(14,15)11-3-10-5/h1-2,10-11H,3H2,(H2,9,12,13)",JZUFKLXOESDKRF-UHFFFAOYSA-N,NS(=O)(=O)c2cc1c(NCNS1(=O)=O)cc2Cl ,-2.63,0.0231136804127387,3,G5,297.745,-0.3512999999999994,61.63640000000001,17.0,5.0,3.0,10.0,1.0,94.0,1.0,0.0,1.0,2.0,118.36,103.054947156305,2.790493724042408,683.3155123780438,High,True
G-732,Hydrocortisone ,"InChI=1S/C21H30O5/c1-19-7-5-13(23)9-12(19)3-4-14-15-6-8-21(26,17(25)11-22)20(15,2)10-16(24)18(14)19/h9,14-16,18,22,24,26H,3-8,10-11H2,1-2H3",JYGXADMDTFJGBT-UHFFFAOYSA-N,CC12CC(O)C3C(CCC4=CC(=O)CCC34C)C2CCC1(O)C(=O)CO,-3.09,0.1003431612019474,4,G5,362.4660000000002,1.7815999999999996,95.14240000000004,26.0,5.0,3.0,5.0,2.0,144.0,0.0,3.0,4.0,4.0,94.83,154.03091112613612,1.7350832012021693,683.8889217536757,High,True
G-743,Iodobenzene,InChI=1S/C6H5I/c7-6-4-2-1-3-5-6/h1-5H,SNHMUERNLJLMHN-UHFFFAOYSA-N,Ic1ccccc1,-3.01,0.1169855071745593,3,G5,204.01,2.2912,39.15900000000001,7.0,0.0,0.0,1.0,0.0,36.0,1.0,0.0,0.0,1.0,0.0,56.6932412405406,3.0214653097240864,134.10736969541455,High,True
G-771,Khellin,"InChI=1S/C14H12O5/c1-7-6-9(15)10-11(16-2)8-4-5-18-12(8)14(17-3)13(10)19-7/h4-6H,1-3H3",HSMPDPBYAYSOBC-UHFFFAOYSA-N,COc2c1occc1c(OC)c3c(=O)cc(C)oc23 ,-3.0210000000000004,0.3196322574459594,3,G5,260.24499999999995,2.8648200000000017,70.09700000000002,19.0,5.0,0.0,5.0,2.0,98.0,3.0,0.0,0.0,3.0,61.81,107.8773171733006,2.682277623756572,825.070503587223,High,True
G-811,Methyl acetate,InChI=1S/C3H6O2/c1-3(4)5-2/h1-2H3,KXKVLQRXCPHEJC-UHFFFAOYSA-N,COC(=O)C,0.46,0.4619653744195736,4,G5,74.07900000000001,0.1792999999999999,17.689999999999998,5.0,2.0,0.0,2.0,0.0,30.0,0.0,0.0,0.0,0.0,26.3,30.74420258617341,2.847378923087672,40.1577218810798,High,True
G-815,Methyl butyrate,"InChI=1S/C6H12O2/c1-3-5-8-6(7)4-2/h3-5H2,1-2H3",MCSINKKTEDDPNK-UHFFFAOYSA-N,CCCOC(=O)CC,-0.82,0.2603903669,2,G3,116.15999999999998,1.3496,31.540999999999983,8.0,2.0,0.0,2.0,3.0,48.0,0.0,0.0,0.0,0.0,26.3,49.83902892936323,2.988598647973156,68.92878689342031,High,True
G-819,Methyl hexanoate,"InChI=1S/C7H14O2/c1-3-4-5-6-7(8)9-2/h3-6H2,1-2H3",NUKZAGXMHTUAFE-UHFFFAOYSA-N,CCCCCC(=O)OC,-1.87,0.0603579892,2,G3,130.18699999999998,1.7397,36.158,9.0,2.0,0.0,2.0,4.0,54.0,0.0,0.0,0.0,0.0,26.3,56.20397104375984,2.9730624080867365,78.98533616859814,High,True
G-823,Methyl nonanoate,"InChI=1S/C10H20O2/c1-3-4-5-6-7-8-9-10(11)12-2/h3-9H2,1-2H3",IJXHLVMUNBOGRR-UHFFFAOYSA-N,CCCCCCCCC(=O)OC,-3.38,0.2481999999999999,2,G3,172.268,2.910000000000001,50.00900000000004,12.0,2.0,0.0,2.0,7.0,72.0,0.0,0.0,0.0,0.0,26.3,75.29879738694967,2.951757131446396,110.40620687739316,High,True
G-824,Methyl octanoate,"InChI=1S/C9H18O2/c1-3-4-5-6-7-8-9(10)11-2/h3-8H2,1-2H3",JGHZJRVDZXSNKQ-UHFFFAOYSA-N,CCCCCCCC(=O)OC,-3.17,0.1102165756999999,2,G3,158.241,2.5199000000000007,45.39200000000002,11.0,2.0,0.0,2.0,6.0,66.0,0.0,0.0,0.0,0.0,26.3,68.93385527255306,2.9549874302986416,99.73585546369786,High,True
G-825,Methyl pentanoate,"InChI=1S/C6H12O2/c1-3-5-6(7)8-4-2/h3-5H2,1-2H3",OBNCKNCVKJNDBV-UHFFFAOYSA-N,CCCC(=O)OCC,-1.36,0.0440038129661005,3,G5,116.15999999999998,1.3496,31.540999999999983,8.0,2.0,0.0,2.0,3.0,48.0,0.0,0.0,0.0,0.0,26.3,49.83902892936323,3.0551722039096187,60.92878689342031,High,True
G-832,Methylparaben,"InChI=1S/C8H8O3/c1-11-8(10)6-2-4-7(9)5-3-6/h2-5,9H,1H3",LXCFILQKKLGQFO-UHFFFAOYSA-N,COC(=O)c1ccc(O)cc1,-1.827,0.0859293376344205,5,G5,152.149,1.1788,39.446300000000015,11.0,3.0,1.0,3.0,1.0,58.0,1.0,0.0,0.0,1.0,46.53,64.23058843003683,2.8953480359887567,250.54461008172763,High,True
G-838,Metoxuron,"InChI=1S/C10H13ClN2O2/c1-13(2)10(14)12-7-4-5-9(15-3)8(11)6-7/h4-6H,1-3H3,(H,12,14)",DSRNRYQBBJQVCW-UHFFFAOYSA-N,COc1ccc(NC(=O)N(C)C)cc1Cl,-2.564,0.0212383824452073,3,G5,228.679,2.4421,60.70970000000002,15.0,2.0,1.0,5.0,2.0,82.0,1.0,0.0,0.0,1.0,41.57,93.77920098732712,2.798213756358398,366.4400629123248,High,True
G-867,nifedipine,"InChI=1S/C17H18N2O6/c1-9-13(16(20)24-3)15(14(10(2)18-9)17(21)25-4)11-7-5-6-8-12(11)19(22)23/h5-8,15,18H,1-4H3",HYIMSNHJOBLJNT-UHFFFAOYSA-N,COC(=O)C1=C(C)NC(=C(C1c2ccccc2N(=O)=O)C(=O)OC)C ,-4.76,0.1143095213298815,3,G5,346.33900000000017,2.1756,88.40510000000002,25.0,7.0,1.0,8.0,4.0,132.0,1.0,0.0,1.0,2.0,107.77,143.8137017251711,2.803490087611988,771.1110283918143,Low,False
G-875,Nitroethane,"InChI=1S/C2H5NO2/c1-2-3(4)5/h2H2,1H3",MCSAJNNLRCFZED-UHFFFAOYSA-N,CCN(=O)=O,-0.22,0.0128960886999999,2,G3,75.067,0.2829999999999999,17.5354,5.0,2.0,0.0,3.0,1.0,30.0,0.0,0.0,0.0,0.0,43.14,29.757168864725955,2.847378923087672,42.91260938324327,High,True
G-877,nitrofurantoin,"InChI=1S/C8H6N4O5/c13-6-4-11(8(14)10-6)9-3-5-1-2-7(17-5)12(15)16/h1-3H,4H2,(H,10,13,14)",NXFQHRVNIOXGAQ-UHFFFAOYSA-N,O=C2CN(N=Cc1ccc(o1)N(=O)=O)C(=O)N2 ,-3.38,0.0450000000000001,2,G3,238.159,0.0734999999999999,53.2011,17.0,6.0,1.0,9.0,3.0,88.0,1.0,1.0,1.0,2.0,118.04999999999998,93.83084397012485,2.0702875864987447,519.7401440929855,High,True
G-907,Oxazepam,"InChI=1S/C15H11ClN2O2/c16-10-6-7-12-11(8-10)13(9-4-2-1-3-5-9)18-15(20)14(19)17-12/h1-8,15,20H,(H,17,19)",ADIMAYPTOBDMTL-UHFFFAOYSA-N,OC3N=C(c1ccccc1)c2cc(Cl)ccc2NC3=O ,-3.952,0.014,2,G3,286.718,2.4479,78.16950000000003,20.0,3.0,2.0,5.0,1.0,100.0,2.0,0.0,1.0,3.0,61.690000000000005,120.2816992638112,2.231586455482015,698.2746308195046,Medium,False
G-923,p-Chloroiodobenzene,InChI=1S/C6H4ClI/c7-5-1-3-6(8)4-2-5/h1-4H,GWQSENYKCGJTRI-UHFFFAOYSA-N,Clc1ccc(I)cc1,-4.03,0.2425585839888309,3,G5,238.455,2.944600000000001,44.16900000000001,8.0,0.0,0.0,2.0,0.0,42.0,1.0,0.0,0.0,1.0,0.0,66.99650746742228,3.0324555320336755,147.38833891467198,Medium,False
G-927,Pencycuron,"InChI=1S/C19H21ClN2O/c20-16-12-10-15(11-13-16)14-22(18-8-4-5-9-18)19(23)21-17-6-2-1-3-7-17/h1-3,6-7,10-13,18H,4-5,8-9,14H2,(H,21,23)",OGYFATSSENRIKG-UHFFFAOYSA-N,Clc1ccc(CN(C2CCCC2)C(=O)Nc3ccccc3)cc1,-5.915,0.0624500000000001,2,G3,328.843,5.316700000000004,94.71170000000004,23.0,1.0,1.0,4.0,4.0,120.0,2.0,1.0,1.0,3.0,32.34,141.81174515354488,1.742786972081346,636.1790056264637,Low,False
G-964,Picene,InChI=1S/C22H14/c1-3-7-17-15(5-1)9-11-21-19(17)13-14-20-18-8-4-2-6-16(18)10-12-22(20)21/h1-14H,GBROPGWFBFCKAG-UHFFFAOYSA-N,c1ccc2c(c1)ccc3c2ccc4c5ccccc5ccc43,-7.87,0.0301499999999999,2,G3,278.354,6.299400000000004,96.46600000000004,22.0,0.0,0.0,0.0,0.0,102.0,5.0,0.0,0.0,5.0,0.0,128.15806124643782,2.0413785020816704,1071.5478172121288,Low,False
G-978,Prednisolone,"InChI=1S/C21H28O5/c1-19-7-5-13(23)9-12(19)3-4-14-15-6-8-21(26,17(25)11-22)20(15,2)10-16(24)18(14)19/h5,7,9,14-16,18,22,24,26H,3-4,6,8,10-11H2,1-2H3",OIGNJSKKLXVSLS-UHFFFAOYSA-N,CC12CC(O)C3C(CCC4=CC(=O)C=CC34C)C2CCC1(O)C(=O)CO,-3.18,0.0521416340365355,4,G5,360.4500000000002,1.5576,95.04840000000004,26.0,5.0,3.0,5.0,2.0,142.0,0.0,3.0,4.0,4.0,94.83,153.34130809395185,1.7472814479871792,723.9130815015496,High,True
G-1011,Pyrazinamide,"InChI=1S/C5H5N3O/c6-5(9)4-3-7-1-2-8-4/h1-3H,(H2,6,9)",IPEHBUMCGVEMRF-UHFFFAOYSA-N,NC(=O)c1cnccn1,-0.667,0.1235999999999999,2,G3,123.11499999999998,-0.4245000000000001,30.5499,9.0,3.0,1.0,4.0,1.0,46.0,1.0,0.0,0.0,1.0,68.87,51.73705399284308,2.981454614041131,208.70290908206397,High,True
G-1027,Risocaine,"InChI=1S/C10H13NO2/c1-2-7-13-10(12)8-3-5-9(11)6-4-8/h3-6H,2,7,11H2,1H3",NBFQYHKHPBMJJV-UHFFFAOYSA-N,CCCOC(=O)c1ccc(N)cc1,-2.452,0.0869206662550524,3,G5,179.21899999999997,1.8356,51.42790000000003,13.0,3.0,1.0,3.0,3.0,70.0,1.0,0.0,0.0,1.0,52.32,77.50612960364676,2.611171250638134,279.48114931490306,High,True
G-1069,Sulfanilamide,"InChI=1S/C6H8N2O2S/c7-5-1-3-6(4-2-5)11(8,9)10/h1-4H,7H2,(H2,8,9,10)",FDDDEECHVMSUSB-UHFFFAOYSA-N,Nc1ccc(cc1)S(N)(=O)=O,-1.34,0.0104999999999999,2,G3,172.20899999999995,-0.0837999999999999,42.2276,11.0,3.0,2.0,5.0,1.0,60.0,1.0,0.0,0.0,1.0,86.18,64.87196040593747,3.2015159310664942,341.3499619957353,High,True
G-1072,t-Crotonaldehyde,"InChI=1S/C4H6O/c1-2-3-4-5/h2-4H,1H3/b3-2+",MLUCVPSAIODCQM-NSCUHMNNSA-N,C/C=C/C=O,0.32,0.005,2,G3,70.09100000000001,0.7614000000000001,20.877999999999997,5.0,1.0,0.0,1.0,1.0,28.0,0.0,0.0,0.0,0.0,17.07,31.30599643887888,2.9244181981729174,45.60964047443681,High,True
G-1078,Testosterone,"InChI=1S/C19H28O2/c1-18-9-7-13(20)11-12(18)3-4-14-15-5-6-17(21)19(15,2)10-8-16(14)18/h11,14-17,21H,3-10H2,1-2H3",MUMGGOZAMZWBJJ-UHFFFAOYSA-N,CC12CCC3C(CCC4=CC(=O)CCC34C)C2CCC1O,-4.02,0.2010441493801796,4,G5,288.431,3.879200000000003,82.71680000000005,21.0,2.0,1.0,2.0,0.0,116.0,0.0,3.0,4.0,4.0,37.3,127.55103729290713,1.6883496404253646,507.69574308017087,Medium,False
G-1079,testosterone acetate,"InChI=1S/C21H30O3/c1-13(22)24-19-7-6-17-16-5-4-14-12-15(23)8-10-20(14,2)18(16)9-11-21(17,19)3/h12,16-19H,4-11H2,1-3H3",DJPZSBANTAQNFN-UHFFFAOYSA-N,CC(=O)OC3CCC4C2CCC1=CC(=O)CCC1(C)C2CCC34C ,-5.184,0.0129999999999999,2,G3,330.4680000000001,4.450000000000004,92.26400000000004,24.0,3.0,0.0,3.0,1.0,132.0,0.0,3.0,4.0,4.0,43.370000000000005,144.76175509905497,1.621332560507921,606.2051148204893,Low,False
G-1141,Vinclozolin,"InChI=1S/C12H9Cl2NO3/c1-3-12(2)10(16)15(11(17)18-12)9-5-7(13)4-8(14)6-9/h3-6H,1H2,2H3",FSCWZHGZWWDELK-UHFFFAOYSA-N,CC1(OC(=O)N(C1=O)c2cc(Cl)cc(Cl)c2)C=C,-4.925,0.0583,2,G3,286.11400000000003,3.4213000000000022,69.03100000000002,18.0,3.0,0.0,6.0,2.0,94.0,1.0,1.0,1.0,2.0,46.61,113.72857717372425,2.4823479789713647,538.0035466066531,Low,False
H-81,Cholesterol  ,"InChI=1S/C27H46O/c1-18(2)7-6-8-19(3)23-11-12-24-22-10-9-20-17-21(28)13-15-26(20,4)25(22)14-16-27(23,24)5/h9,18-19,21-25,28H,6-8,10-17H2,1-5H3",HVYWMOMLDIMFJA-UHFFFAOYSA-N,CC(C)CCCC(C)C1CCC2C3CC=C4CC(O)CCC4(C)C3CCC12C,-7.0,0.1800000000000001,2,G3,386.6640000000002,7.388700000000009,119.05280000000008,28.0,1.0,1.0,1.0,5.0,160.0,0.0,3.0,4.0,4.0,20.23,174.30905210803618,1.4894525128431004,591.069705945873,Low,False
H-130,Dichlorodifluoromethane  ,"InChI=1S/CCl2F2/c2-1(3,4)5",PXBRQCKWGAHEHS-UHFFFAOYSA-N,FC(F)(Cl)Cl,-1.99,0.32265,2,G3,120.913,2.0143,16.653,5.0,0.0,0.0,4.0,0.0,32.0,0.0,0.0,0.0,0.0,0.0,37.676854287445366,3.0237157840738176,23.11941547876375,High,True
H-197,Ethylenedichloride  ,InChI=1S/C2H4Cl2/c3-1-2-4/h1-2H2,WSLDOOZREJYCGB-UHFFFAOYSA-N,ClCCCl,-1.08,0.0174201823164952,4,G5,98.96,1.464,21.439999999999998,4.0,0.0,0.0,2.0,1.0,26.0,0.0,0.0,0.0,0.0,0.0,35.71072559598951,1.9747448713915892,6.0,High,True
H-215,"2,2',3,4',5,5',6-Heptachlorobiphenyl  ",InChI=1S/C12H3Cl7/c13-5-2-7(15)6(14)1-4(5)10-11(18)8(16)3-9(17)12(10)19/h1-3H,UDMZPLROONOSEF-UHFFFAOYSA-N,ClC1=CC(Cl)=C(Cl)C=C1C1=C(Cl)C(Cl)=CC(Cl)=C1Cl,-8.94,0.4985999999999997,2,G3,395.3270000000001,7.9274,86.94800000000001,19.0,0.0,0.0,7.0,1.0,100.0,2.0,0.0,0.0,2.0,0.0,144.61136091373268,2.826969437955591,637.6079666719706,Low,False
H-231,Hexachlorobenzene  ,InChI=1S/C6Cl6/c7-1-2(8)4(10)6(12)5(11)3(1)9,CKAPSXZOOQJIBF-UHFFFAOYSA-N,ClC1=C(Cl)C(Cl)=C(Cl)C(Cl)=C1Cl,-7.56,0.3939719138325582,3,G5,284.784,5.606999999999999,56.502,12.0,0.0,0.0,6.0,0.0,66.0,1.0,0.0,0.0,1.0,0.0,99.25100048078698,3.603567451474548,226.30309024251744,Low,False
H-238,"2,2',3,4,4',5'-Hexachlorobiphenyl  ",InChI=1S/C12H4Cl6/c13-5-1-2-6(8(14)3-5)7-4-9(15)11(17)12(18)10(7)16/h1-4H,CKLLRBPBZLTGDJ-UHFFFAOYSA-N,ClC1=CC=C(C2=CC(Cl)=C(Cl)C(Cl)=C2Cl)C(Cl)=C1,-8.32,0.4923338997965598,3,G5,360.88200000000006,7.274,81.938,18.0,0.0,0.0,6.0,1.0,94.0,2.0,0.0,0.0,2.0,0.0,134.308094686851,2.7165459731419475,620.4500798683472,Low,False
H-245,"1,2,3,4,7,8-Hexachlorodibenzofuran  ",InChI=1S/C12H2Cl6O/c13-4-1-3-6(2-5(4)14)19-12-7(3)8(15)9(16)10(17)11(12)18/h1-2H,LVYBAQIVPKCOEE-UHFFFAOYSA-N,ClC1=C(Cl)C=C2C(=C1)OC1=C(Cl)C(Cl)=C(Cl)C(Cl)=C21,-10.66,0.0199999999999995,2,G3,374.86500000000007,7.5064,83.78000000000002,19.0,1.0,0.0,7.0,0.0,98.0,3.0,0.0,0.0,3.0,13.14,137.40865880833422,2.6263703863675003,835.6989004553219,Low,False
H-315,Methyl chloride  ,InChI=1S/CH3Cl/c1-2/h1H3,NEHMKBQYUWJMIP-UHFFFAOYSA-N,CCl,-0.88,0.0486382674499999,2,G3,50.488,0.855,11.777,2.0,0.0,0.0,1.0,0.0,14.0,0.0,0.0,0.0,0.0,0.0,19.042517254711225,1.0,2.0,High,True
H-341,17-Methyl testosterone  ,"InChI=1S/C20H30O2/c1-18-9-6-14(21)12-13(18)4-5-15-16(18)7-10-19(2)17(15)8-11-20(19,3)22/h12,15-17,22H,4-11H2,1-3H3",GCKMFJBGXUYNAG-UHFFFAOYSA-N,CC12CCC(=O)C=C1CCC1C2CCC2(C)C1CCC2(C)O,-3.97,0.0294392028877596,3,G5,302.458,4.269300000000005,87.33380000000005,22.0,2.0,1.0,2.0,0.0,122.0,0.0,3.0,4.0,4.0,37.3,133.9159794073037,1.696800171923318,545.9104984355639,Medium,False
H-354,m-Nitrotoluene  ,"InChI=1S/C7H7NO2/c1-6-3-2-4-7(5-6)8(9)10/h2-5H,1H3",QZYHIOPPLUPUJF-UHFFFAOYSA-N,CC1=CC(=CC=C1)[N+](=O)[O-],-2.46,0.0378459454033128,4,G5,137.13799999999998,1.90322,37.83340000000002,10.0,2.0,0.0,3.0,1.0,52.0,1.0,0.0,0.0,1.0,43.14,58.44932095639337,3.069899265759275,257.53794892648057,High,True
H-399,Phenacetin  ,"InChI=1S/C10H13NO2/c1-3-13-10-6-4-9(5-7-10)11-8(2)12/h4-7H,3H2,1-2H3,(H,11,12)",CPJSUEIXXCENMM-UHFFFAOYSA-N,CCOC1=CC=C(NC(C)=O)C=C1,-2.3,0.0558349567923179,5,G5,179.219,2.0437,51.914700000000025,13.0,2.0,1.0,3.0,3.0,70.0,1.0,0.0,0.0,1.0,38.33,77.71610109024209,2.635972640607562,279.48114931490306,High,True
H-409,Propane  ,"InChI=1S/C3H8/c1-3-2/h3H2,1-2H3",ATUOYWHBWRKTHZ-UHFFFAOYSA-N,CCC,-2.84,0.4381085080133397,5,G5,44.097,1.4163,15.965000000000003,3.0,0.0,0.0,0.0,0.0,20.0,0.0,0.0,0.0,0.0,0.0,21.469135256622767,1.6329931618554523,0.0,High,True
H-427,"1,1,2,2-Tetrabromoethane  ",InChI=1S/C2H2Br4/c3-1(4)2(5)6/h1-2H,QXSZNDIIPUOQMB-UHFFFAOYSA-N,BrC(Br)C(Br)Br,-2.72,0.0100439036235917,3,G5,345.654,3.2182000000000004,43.284000000000006,6.0,0.0,0.0,4.0,1.0,38.0,0.0,0.0,0.0,0.0,0.0,70.57438356479159,2.993497243478473,26.52932501298081,High,True
H-430,"2,4,5,6-Tetrachloroanisole  ","InChI=1S/C7H4Cl4O/c1-12-7-4(9)2-3(8)5(10)6(7)11/h2H,1H3",ITXDBGLYYSJNPK-UHFFFAOYSA-N,COC1=C(Cl)C(Cl)=C(Cl)C=C1Cl,-5.13,0.0100000000000002,2,G3,245.92,4.308800000000001,53.03400000000001,12.0,1.0,0.0,5.0,1.0,66.0,1.0,0.0,0.0,1.0,9.23,90.12295537092712,3.404478398889996,310.7649525073721,Low,False
H-432,"1,2,3,5-Tetrachlorobenzene  ",InChI=1S/C6H2Cl4/c7-3-1-4(8)6(10)5(9)2-3/h1-2H,QZYNWJQFTJXIRN-UHFFFAOYSA-N,ClC1=CC(Cl)=C(Cl)C(Cl)=C1,-4.68,0.067993283982072,3,G5,215.894,4.3002,46.482000000000006,10.0,0.0,0.0,4.0,0.0,54.0,1.0,0.0,0.0,1.0,0.0,78.64446802702365,3.310532874722407,232.91988337222983,Low,False
H-433,"1,2,4,5-Tetrachlorobenzene  ",InChI=1S/C6H2Cl4/c7-3-1-4(8)6(10)2-5(3)9/h1-2H,JHBKHLUZVFWLAG-UHFFFAOYSA-N,ClC1=CC(Cl)=C(Cl)C=C1Cl,-5.47,0.0448500000000002,2,G3,215.894,4.3002,46.482000000000006,10.0,0.0,0.0,4.0,0.0,54.0,1.0,0.0,0.0,1.0,0.0,78.64446802702365,3.2824629074535228,205.9198833722299,Low,False
H-447,"3,3',4,4'-Tetrachlorobiphenyl  ",InChI=1S/C12H6Cl4/c13-9-3-1-7(5-11(9)15)8-2-4-10(14)12(16)6-8/h1-6H,UQMGJOKDKOLIDP-UHFFFAOYSA-N,ClC1=CC=C(C2=CC=C(Cl)C(Cl)=C2)C=C1Cl,-8.53,0.0989085885496749,3,G5,291.992,5.967200000000001,71.91800000000002,16.0,0.0,0.0,4.0,1.0,82.0,2.0,0.0,0.0,2.0,0.0,113.70156223308769,2.5020803743746223,485.037124074059,Low,False
H-450,"2,4,4',6-Tetrachlorobiphenyl  ",InChI=1S/C12H6Cl4/c13-8-3-1-7(2-4-8)12-10(15)5-9(14)6-11(12)16/h1-6H,RZFZBHKDGHISSH-UHFFFAOYSA-N,ClC1=CC=C(C2=C(Cl)C=C(Cl)C=C2Cl)C=C1,-6.94,0.2171000000000003,2,G3,291.992,5.967200000000002,71.91800000000002,16.0,0.0,0.0,4.0,1.0,82.0,2.0,0.0,0.0,2.0,0.0,113.70156223308769,2.597174452013575,494.0371240740592,Low,False
H-453,"1,2,3,4-Tetrachlorodibenzo-p-dioxin  ",InChI=1S/C12H4Cl4O2/c13-7-8(14)10(16)12-11(9(7)15)17-5-3-1-2-4-6(5)18-12/h1-4H,DJHHDLMTUOLVHY-UHFFFAOYSA-N,ClC1=C(Cl)C(Cl)=C2OC3=CC=CC=C3OC2=C1Cl,-8.77,0.0888284864218678,3,G5,321.97400000000005,6.198200000000001,73.07200000000002,18.0,2.0,0.0,6.0,0.0,92.0,2.0,0.0,1.0,3.0,18.46,122.9228215385722,2.2472750415466165,599.0110495664155,Low,False
H-463,Tetrachloroethylene  ,InChI=1S/C2Cl4/c3-1(4)2(5)6,CYTYCFOTNPOANT-UHFFFAOYSA-N,ClC(Cl)=C(Cl)Cl,-2.74,0.1898377387938388,4,G5,165.834,3.0682,30.438,6.0,0.0,0.0,4.0,0.0,36.0,0.0,0.0,0.0,0.0,0.0,55.6276550175686,3.675948764555208,55.61727061434748,High,True
H-479,"2,4,6-Trichloroanisole  ","InChI=1S/C7H5Cl3O/c1-11-7-5(9)2-4(8)3-6(7)10/h2-3H,1H3",WCVOGSZTONGSQY-UHFFFAOYSA-N,COC1=C(Cl)C=C(Cl)C=C1Cl,-4.2,0.0626500000000001,2,G3,211.475,3.655400000000001,48.024000000000015,11.0,1.0,0.0,4.0,1.0,60.0,1.0,0.0,0.0,1.0,9.23,79.81968914404547,3.2477131903358982,249.38335062299743,Medium,False
H-482,"1,3,5-Trichlorobenzene  ",InChI=1S/C6H3Cl3/c7-4-1-5(8)3-6(9)2-4/h1-3H,XKEFYDZQGKAQCN-UHFFFAOYSA-N,ClC1=CC(Cl)=CC(Cl)=C1,-4.6,0.0680326882216678,3,G5,181.449,3.6468000000000007,41.47200000000001,9.0,0.0,0.0,3.0,0.0,48.0,1.0,0.0,0.0,1.0,0.0,68.34120180014197,3.165670309917317,169.06517765499825,Low,False
H-491,"1,2,4-Trichlorodibenzo-p-dioxin  ",InChI=1S/C12H5Cl3O2/c13-6-5-7(14)11-12(10(6)15)17-9-4-2-1-3-8(9)16-11/h1-5H,HRVUKLBFRPWXPJ-UHFFFAOYSA-N,ClC1=CC(Cl)=C2OC3=CC=CC=C3OC2=C1Cl,-7.58,0.0312985977676673,3,G5,287.529,5.5448,68.06200000000001,17.0,2.0,0.0,5.0,0.0,86.0,2.0,0.0,1.0,3.0,18.46,112.61955531169052,2.2089128480293483,610.9400033837917,Low,False
H-496,"1,1,1-Trichloroethane  ","InChI=1S/C2H3Cl3/c1-2(3,4)5/h1H3",UOCLXMDMGBRAIB-UHFFFAOYSA-N,CC(Cl)(Cl)Cl,-2.14,0.256999245519157,6,G5,133.405,2.376500000000001,25.963999999999995,5.0,0.0,0.0,3.0,0.0,32.0,0.0,0.0,0.0,0.0,0.0,46.013991822871176,3.0237157840738176,20.36452797660028,High,True
H-514,Vernolate  ,"InChI=1S/C10H21NOS/c1-4-7-11(8-5-2)10(12)13-9-6-3/h4-9H2,1-3H3",OKUGPJPKMAEJOE-UHFFFAOYSA-N,CCCSC(=O)N(CCC)CCC,-3.3,0.0269999999999999,2,G3,203.35099999999997,3.3716000000000026,60.30000000000004,13.0,2.0,0.0,3.0,6.0,78.0,0.0,0.0,0.0,0.0,20.31,86.06819585301139,3.7993393278259617,132.88643538696058,High,True
H-517,"2,2',3,3',4,4',5,5',6'-Nonachlorodiphenyl ether  ",InChI=1S/C12HCl9O/c13-2-1-3(5(15)6(16)4(2)14)22-12-10(20)8(18)7(17)9(19)11(12)21/h1H,FPEYJPVHPGDXDD-UHFFFAOYSA-N,ClC1=C(Cl)C(Cl)=C(Cl)C(OC2=C(Cl)C(Cl)=C(Cl)C(Cl)=C2Cl)=C1,-10.55,0.4749999999999996,2,G3,480.2160000000002,9.3595,98.048,22.0,1.0,0.0,10.0,2.0,118.0,2.0,0.0,0.0,2.0,9.23,170.3314385970029,2.6281734618237107,743.162964973806,Low,False
H-524,Alachlor,"InChI=1S/C14H20ClNO2/c1-4-11-7-6-8-12(5-2)14(11)16(10-18-3)13(17)9-15/h6-8H,4-5,9-10H2,1-3H3",XCSGPAVHZFQHGE-UHFFFAOYSA-N,CCC1=CC=CC(CC)=C1N(COC)C(=O)CCl,-3.17,0.0856824110045669,3,G5,269.77199999999993,2.9871000000000016,75.28000000000004,18.0,2.0,0.0,4.0,6.0,100.0,1.0,0.0,0.0,1.0,29.54,113.68910726130552,3.2766131919478854,384.5305068733243,High,True
H-530,Carbophenothion,"InChI=1S/C11H16ClO2PS3/c1-3-13-15(16,14-4-2)18-9-17-11-7-5-10(12)6-8-11/h5-8H,3-4,9H2,1-2H3",VEDTXTNSFWUXGQ-UHFFFAOYSA-N,CCOP(=S)(OCC)SCSC1=CC=C(Cl)C=C1,-6.05,0.1570999999999998,2,G3,342.875,5.420300000000004,87.30400000000003,18.0,5.0,0.0,7.0,8.0,102.0,1.0,0.0,0.0,1.0,18.46,127.07453289631016,2.431478516077076,389.77972797712056,Low,False