ID,Name,InChI,InChIKey,SMILES,Solubility,SD,Ocurrences,Group,MolWt,MolLogP,MolMR,HeavyAtomCount,NumHAcceptors,NumHDonors,NumHeteroatoms,NumRotatableBonds,NumValenceElectrons,NumAromaticRings,NumSaturatedRings,NumAliphaticRings,RingCount,TPSA,LabuteASA,BalabanJ,BertzCT,bin,is_sol
A-14,bis(4-fluorophenyl)methanone,InChI=1S/C13H8F2O/c14-11-5-1-9(2-6-11)13(16)10-3-7-12(15)8-4-10/h1-8H,LSQARZALBDFYQZ-UHFFFAOYSA-N,Fc1ccc(cc1)C(=O)c2ccc(F)cc2,-4.396652184700001,0.4315126480999995,2,G3,218.202,3.195800000000001,56.232500000000016,16.0,1.0,0.0,3.0,2.0,80.0,2.0,0.0,0.0,2.0,17.07,91.34603234585384,2.315627695408683,452.9607327512057,Medium,False
A-15,1-[2-(benzoyloxy)propoxy]propan-2-yl benzoate 1-{[1-(benzoyloxy)propan-2-yl]oxy}propan-2-yl benzoate 2-{[1-(benzoyloxy)propan-2-yl]oxy}propyl benzoate,"InChI=1S/C20H22O5/c21-19(17-9-3-1-4-10-17)24-15-7-13-23-14-8-16-25-20(22)18-11-5-2-6-12-18/h1-6,9-12H,7-8,13-16H2",BYQDGAVOOHIJQS-UHFFFAOYSA-N,O=C(OCCCOCCCOC(=O)c1ccccc1)c2ccccc2,-4.595502563999999,0.1185512819999998,2,G3,342.391,3.497200000000002,93.50200000000004,25.0,5.0,0.0,5.0,10.0,132.0,2.0,0.0,0.0,2.0,61.830000000000005,147.07171412934204,1.447049640012117,582.1507932669278,Low,False
A-19,"2,3-dimethylphenol; 2,4-dimethylphenol; 2,5-dimethylphenol; 2,6-dimethylphenol; 3,4-dimethylphenol; 3,5-dimethylphenol","InChI=1S/6C8H10O/c1-6-3-7(2)5-8(9)4-6;1-6-3-4-8(9)5-7(6)2;1-6-3-4-8(9)7(2)5-6;1-6-3-4-7(2)8(9)5-6;1-6-4-3-5-8(9)7(6)2;1-6-4-3-5-7(2)8(6)9/h6*3-5,9H,1-2H3",YJZHZFOWHRKQHS-UHFFFAOYSA-N,Cc1ccc(O)c(C)c1.Cc2ccc(C)c(O)c2.Cc3cc(C)cc(O)c3.Cc4ccc(O)cc4C.Cc5cccc(O)c5C.Cc6cccc(C)c6O,-1.9803097957,0.1558590555003896,4,G5,733.0020000000002,12.05423999999998,225.48479999999927,54.0,6.0,6.0,6.0,0.0,288.0,6.0,0.0,0.0,6.0,121.38,322.89073780339857,3.239999990671114e-07,1804.418547468813,High,True
A-23,"(2E)-3,7-dimethylocta-2,6-dien-1-ol","InChI=1S/C10H18O/c1-9(2)5-4-6-10(3)7-8-11/h5,7,11H,4,6,8H2,1-3H3/b10-7-",GLZPCOQZEFWAFX-YFHOEESVSA-N,CC(C)=CCC\C(C)=C/CO,-2.3206011661000003,0.0716328692630134,4,G5,154.253,2.6714000000000016,49.50780000000003,11.0,1.0,1.0,1.0,4.0,64.0,0.0,0.0,0.0,0.0,20.23,69.43875774522651,3.54438743137085,150.25571236699292,High,True
A-24,2-(4-chloro-2-methylphenoxy)propanoic acid,"InChI=1S/C10H11ClO3/c1-6-5-8(11)3-4-9(6)14-7(2)10(12)13/h3-5,7H,1-2H3,(H,12,13)",WNTGYJSOUMFZEP-UHFFFAOYSA-N,CC(Oc1ccc(Cl)cc1C)C(O)=O,-2.4660307863,0.0606208768005135,4,G5,214.648,2.5003199999999994,53.91480000000002,14.0,2.0,1.0,4.0,3.0,76.0,1.0,0.0,0.0,1.0,46.53,87.26373888571173,2.817664884623791,349.2203893594689,High,True
A-29,1-methyl-4-(propan-2-ylidene)cyclohex-1-ene,"InChI=1S/C10H16/c1-8(2)10-6-4-9(3)5-7-10/h4H,5-7H2,1-3H3",MOYAFQVGZZPNRA-UHFFFAOYSA-N,CC(C)=C1CCC(=CC1)C,-4.2873429345,0.1312305914581116,3,G5,136.238,3.453000000000002,45.98200000000003,10.0,0.0,0.0,0.0,0.0,56.0,0.0,0.0,1.0,1.0,0.0,63.63869283950127,2.668730432311545,178.21499122004107,Medium,False
A-38,"9-Octadecenoic acid (Z)-, reaction products with 2-[(2-aminoethyl)amino]ethanol","InChI=1S/C18H34O2.C4H12N2O/c1-2-3-4-5-6-7-8-9-10-11-12-13-14-15-16-17-18(19)20;5-1-2-6-3-4-7/h9-10H,2-8,11-17H2,1H3,(H,19,20);6-7H,1-5H2/b10-9-;",YGJDXOJIYODGEO-KVVVOXFISA-N,CCCCCCCC\C=C/CCCCCCCC(O)=O.NCCNCCO,-4.8091341894,0.2862660720158071,3,G5,386.6210000000001,4.635500000000003,116.09770000000007,27.0,4.0,4.0,5.0,19.0,162.0,0.0,0.0,0.0,0.0,95.58,167.3590060365599,0.0,305.9330151827408,Low,False
A-39,dodecyl 2-hydroxypropanoate,"InChI=1S/C15H30O3/c1-3-4-5-6-7-8-9-10-11-12-13-18-15(17)14(2)16/h14,16H,3-13H2,1-2H3",QQQMUBLXDAFBRH-UHFFFAOYSA-N,CCCCCCCCCCCCOC(=O)C(C)O,-4.6341446203,0.1065374126499998,2,G3,258.402,3.831300000000003,74.48380000000006,18.0,3.0,1.0,3.0,12.0,108.0,0.0,0.0,0.0,0.0,46.53,111.91774171112876,3.053119778367266,190.1777353463783,Low,False
A-47,2-phenoxyethyl prop-2-enoate,"InChI=1S/C11H12O3/c1-2-11(12)14-9-8-13-10-6-4-3-5-7-10/h2-7H,1,8-9H2",RZVINYQDSSQUKO-UHFFFAOYSA-N,C=CC(=O)OCCOc1ccccc1,-2.5636257131,0.2279659778,2,G3,192.21400000000003,1.7946,53.09300000000003,14.0,3.0,0.0,3.0,5.0,74.0,1.0,0.0,0.0,1.0,35.53,82.95512321835328,2.1621432588559366,292.660770563408,High,True
A-49,undec-10-enoic acid,"InChI=1S/C11H20O2/c1-2-3-4-5-6-7-8-9-10-11(12)13/h2H,1,3-10H2,(H,12,13)",FRPZMMHWLSIFAZ-UHFFFAOYSA-N,OC(=O)CCCCCCCCC=C,-3.5528261452,0.1154943836958407,3,G5,184.279,3.3778000000000024,54.76880000000004,13.0,1.0,1.0,2.0,9.0,76.0,0.0,0.0,0.0,0.0,37.3,80.65482499185117,2.9092867326592624,141.0257051333355,High,True
A-58,1-tert-butyl-4-methylbenzene,"InChI=1S/C11H16/c1-9-5-7-10(8-6-9)11(2,3)4/h5-8H,1-4H3",QCWXDVFBZVHKLV-UHFFFAOYSA-N,Cc1ccc(cc1)C(C)(C)C,-4.4720217682,0.0484550064999997,2,G3,148.249,3.292520000000001,49.87900000000003,11.0,0.0,0.0,0.0,0.0,60.0,1.0,0.0,0.0,1.0,0.0,69.25611369147998,2.993754788259927,223.21037742768323,Medium,False
A-61,cyclohexanecarboxylic acid,"InChI=1S/C7H12O2/c8-7(9)6-4-2-1-3-5-6/h6H,1-5H2,(H,8,9)",NZNMSOFKMUBTKW-UHFFFAOYSA-N,OC(=O)C1CCCCC1,-1.445031941,0.1824840295000001,2,G3,128.17100000000002,1.6513,34.21079999999999,9.0,1.0,1.0,2.0,1.0,52.0,0.0,1.0,1.0,1.0,37.3,54.87882841291975,2.312191533568197,103.48377837619049,High,True
A-73,S-ethyl dipropylthiocarbamate,"InChI=1S/C9H19NOS/c1-4-7-10(8-5-2)9(11)12-6-3/h4-8H2,1-3H3",GUVLYNGULCJVDO-UHFFFAOYSA-N,CCCN(CCC)C(=O)SCC,-2.7031744039,0.01873641255,2,G3,189.324,2.9815000000000014,55.68300000000004,12.0,2.0,0.0,3.0,5.0,72.0,0.0,0.0,0.0,0.0,20.31,79.70325373861478,3.81079475517114,121.69694286392864,High,True
A-75,"1-hydroxy-4-methyl-6-(2,4,4-trimethylpentyl)pyridin-2(1H)-one - 2-aminoethanol (1:1)","InChI=1S/C14H23NO2.C2H7NO/c1-10-6-12(15(17)13(16)8-10)7-11(2)9-14(3,4)5;3-1-2-4/h6,8,11,17H,7,9H2,1-5H3;4H,1-3H2",BTSZTGGZJQFALU-UHFFFAOYSA-N,CC(CC1=CC(=CC(=O)N1O)C)CC(C)(C)C.NCCO,-3.9054642035,0.4957119165154642,5,G5,298.427,1.94622,85.70370000000004,21.0,5.0,3.0,5.0,4.0,122.0,1.0,0.0,0.0,1.0,88.48,126.9251357998572,8.852940067272714e-07,473.3909247801034,Medium,False
A-94,"3-[(3-sulfanylpropanoyl)oxy]-2,2-bis({[(3-sulfanylpropanoyl)oxy]methyl})propyl 3-sulfanylpropanoate","InChI=1S/C17H28O8S4/c18-13(1-5-26)22-9-17(10-23-14(19)2-6-27,11-24-15(20)3-7-28)12-25-16(21)4-8-29/h26-29H,1-12H2",JOBBTVPTPXRUBP-UHFFFAOYSA-N,SCCC(=O)OCC(COC(=O)CCS)(COC(=O)CCS)COC(=O)CCS,-5.1231687481,0.0182445359681366,3,G5,488.67100000000033,1.4251999999999998,120.14900000000004,29.0,12.0,4.0,12.0,16.0,168.0,0.0,0.0,0.0,0.0,105.20000000000002,192.2988608299848,5.354117665280892,436.0525055103621,Low,False
A-106,"ethyl 3,5,5-trimethylhexanoate","InChI=1S/C11H22O2/c1-6-13-10(12)7-9(2)8-11(3,4)5/h9H,6-8H2,1-5H3",NMZMQQBBZRGLPJ-UHFFFAOYSA-N,CCOC(=O)CC(C)CC(C)(C)C,-3.8230431676,0.025392856001213,3,G5,186.295,3.0119000000000016,54.48600000000005,13.0,2.0,0.0,2.0,4.0,78.0,0.0,0.0,0.0,0.0,26.3,81.66373950134626,3.740275419955663,155.96343903735325,Medium,False
A-114,Prednisolone,"InChI=1S/C21H28O5/c1-19-7-5-13(23)9-12(19)3-4-14-15-6-8-21(26,17(25)11-22)20(15,2)10-16(24)18(14)19/h5,7,9,14-16,18,22,24,26H,3-4,6,8,10-11H2,1-2H3/t14-,15-,16-,18+,19-,20-,21-/m0/s1",OIGNJSKKLXVSLS-VWUMJDOOSA-N,C[C@]12C[C@H](O)[C@H]3[C@@H](CCC4=CC(=O)C=C[C@]34C)[C@@H]1CC[C@]2(O)C(=O)CO,-3.1784471289,0.0150465189500001,2,G3,360.4500000000002,1.5576,95.04840000000004,26.0,5.0,3.0,5.0,2.0,142.0,0.0,3.0,4.0,4.0,94.83,153.34130809395185,1.7472814479871792,723.9130815015496,High,True
A-118,"5-{[2-(2-butoxyethoxy)ethoxy]methyl}-6-propyl-2H-1,3-benzodioxole","InChI=1S/C19H30O5/c1-3-5-7-20-8-9-21-10-11-22-14-17-13-19-18(23-15-24-19)12-16(17)6-4-2/h12-13H,3-11,14-15H2,1-2H3",FIPWRIJSWJWJAI-UHFFFAOYSA-N,CCCCOCCOCCOCc1cc2OCOc2cc1CCC,-4.1510889183,0.1290920829223444,3,G5,338.44400000000013,3.7177000000000016,92.76200000000009,24.0,5.0,0.0,5.0,13.0,136.0,1.0,0.0,1.0,2.0,46.150000000000006,144.73754560065805,1.632174210208813,475.07010591802384,Medium,False
A-135,"(1S,5S)-2,6,6-trimethylbicyclo[3.1.1]hept-2-ene","InChI=1S/C10H16/c1-7-4-5-8-6-9(7)10(8,2)3/h4,8-9H,5-6H2,1-3H3/t8-,9-/m0/s1",GRWFGVWFFZKLTI-IUCAKERBSA-N,CC1=CC[C@H]2C[C@@H]1C2(C)C,-4.7725704235,0.0731443998950961,3,G5,136.238,2.9987000000000013,43.75200000000002,10.0,0.0,0.0,0.0,0.0,56.0,0.0,1.0,3.0,3.0,0.0,63.322464718156304,2.296626579720339,186.21499122004107,Low,False
A-139,trimethyl[(trimethylsilyl)oxy]silane,"InChI=1S/C6H18OSi2/c1-8(2,3)7-9(4,5)6/h1-6H3",UQEAIHBTYFGYIE-UHFFFAOYSA-N,C[Si](C)(C)O[Si](C)(C)C,-4.909505216,0.1662473920000002,2,G3,162.38099999999997,2.6728000000000005,47.77700000000003,9.0,1.0,0.0,3.0,2.0,56.0,0.0,0.0,0.0,0.0,9.23,60.68613837789019,3.746417931251032,76.2114326716684,Low,False
A-158,"octadec-9-enoic acid - N-(2-aminoethyl)ethane-1,2-diamine (1:1)","InChI=1S/C18H34O2.C4H13N3/c1-2-3-4-5-6-7-8-9-10-11-12-13-14-15-16-17-18(19)20;5-1-3-7-4-2-6/h9-10H,2-8,11-17H2,1H3,(H,19,20);7H,1-6H2/b10-9-;",PYBPYUAKCDQFCS-KVVVOXFISA-N,CCCCCCCC\C=C/CCCCCCCC(O)=O.NCCNCCN,-4.4100874366000005,0.3986702441415569,4,G5,385.6370000000001,4.601900000000001,118.06630000000008,27.0,4.0,4.0,5.0,19.0,162.0,0.0,0.0,0.0,0.0,101.37,167.9046629813766,0.0,305.9330151827408,Medium,False
A-176,"1,2-dibutyl benzene-1,2-dicarboxylate","InChI=1S/C16H22O4/c1-3-5-11-19-15(17)13-9-7-8-10-14(13)16(18)20-12-6-4-2/h7-10H,3-6,11-12H2,1-2H3",DOIRQSBPFJWKBE-UHFFFAOYSA-N,CCCCOC(=O)c1ccccc1C(=O)OCCCC,-4.3876832538,0.0572972635905897,5,G5,278.348,3.600400000000003,76.82300000000005,20.0,4.0,0.0,4.0,8.0,110.0,1.0,0.0,0.0,1.0,52.60000000000001,119.63095892256436,2.7123913375014235,398.85794216890986,Medium,False
A-183,"dihydro-3-(tetrapropenyl)furan-2,5-dione","InChI=1S/C16H26O3/c1-10(2)6-11(3)7-12(4)8-13(5)14-9-15(17)19-16(14)18/h8,10-12,14H,6-7,9H2,1-5H3/b13-8+",WBRBLKRDTHYRRV-MDWZMJQESA-N,CC(C)CC(C)CC(C)\C=C(/C)C1CC(=O)OC1=O,-4.4255032449,0.1505149977999997,2,G3,266.381,3.730800000000003,75.36300000000004,19.0,3.0,0.0,3.0,6.0,108.0,0.0,1.0,1.0,1.0,43.370000000000005,115.95453798765962,2.5334057052447885,368.1903353571112,Medium,False
A-192,2-(hexadecanoylamino)acetic acid,"InChI=1S/C18H35NO3/c1-2-3-4-5-6-7-8-9-10-11-12-13-14-15-17(20)19-16-18(21)22/h2-16H2,1H3,(H,19,20)(H,21,22)",KVTFEOAKFFQCCX-UHFFFAOYSA-N,CCCCCCCCCCCCCCCC(=O)NCC(O)=O,-5.593122621900001,0.0445871950943068,3,G5,313.482,4.6685000000000025,90.95750000000008,22.0,2.0,2.0,4.0,16.0,130.0,0.0,0.0,0.0,0.0,66.4,135.61040710846353,3.107593513656218,279.5058337171213,Low,False
A-193,"(1E,5E,9E)-cyclododeca-1,5,9-triene","InChI=1S/C12H18/c1-2-4-6-8-10-12-11-9-7-5-3-1/h1-2,7-10H,3-6,11-12H2/b2-1-,9-7-,10-8+",ZOLLIQAKMYWTBR-UDIJVJLMSA-N,C\1C\C=C/CC\C=C/CC/C=C1,-5.3651562541,0.1989700042999995,2,G3,162.276,4.009200000000003,55.12200000000004,12.0,0.0,0.0,0.0,0.0,66.0,0.0,0.0,1.0,1.0,0.0,75.67897403611023,2.30411059848846,121.19311924156366,Low,False
A-201,"1,1':4',1''-terphenyl",InChI=1S/C18H14/c1-3-7-15(8-4-1)17-11-13-18(14-12-17)16-9-5-2-6-10-16/h1-14H,XJKSTNDFUHDPQJ-UHFFFAOYSA-N,c1ccc(cc1)c2ccc(cc2)c3ccccc3,-6.183335848,0.4618320760000003,2,G3,230.31,5.020600000000004,77.31400000000004,18.0,0.0,0.0,0.0,2.0,86.0,3.0,0.0,0.0,3.0,0.0,107.54559153162504,1.951466168669556,548.7160655475084,Low,False
A-203,pyrene,InChI=1S/C16H10/c1-3-11-7-9-13-5-2-6-14-10-8-12(4-1)15(11)16(13)14/h1-10H,BBEAQIROQSPTKN-UHFFFAOYSA-N,c1cc2ccc3cccc4ccc(c1)c2c34,-6.1787966156,0.0588200189844963,3,G5,202.256,4.584000000000002,70.14600000000003,16.0,0.0,0.0,0.0,0.0,74.0,4.0,0.0,0.0,4.0,0.0,93.45542159483816,2.505955689360672,666.6198058168793,Low,False
A-212,bis(8-methylnonyl) sebacate,"InChI=1S/C30H58O4/c1-27(2)21-15-9-7-13-19-25-33-29(31)23-17-11-5-6-12-18-24-30(32)34-26-20-14-8-10-16-22-28(3)4/h27-28H,5-26H2,1-4H3",OAXZVLMNNOOMGN-UHFFFAOYSA-N,CC(C)CCCCCCCOC(=O)CCCCCCCCC(=O)OCCCCCCCC(C)C,-7.2523945018,0.2754537344000001,2,G3,482.7900000000005,9.186800000000003,143.93399999999988,34.0,4.0,0.0,4.0,25.0,202.0,0.0,0.0,0.0,0.0,52.60000000000001,211.87270700443256,3.280659314844703,416.7216822476719,Low,False
A-213,"6'-(dibutylamino)-3'-methyl-2'-(phenylamino)-3H-spiro[2-benzofuran-1,9'-xanthene]-3-one","InChI=1S/C35H36N2O3/c1-4-6-19-37(20-7-5-2)26-17-18-29-33(22-26)39-32-21-24(3)31(36-25-13-9-8-10-14-25)23-30(32)35(29)28-16-12-11-15-27(28)34(38)40-35/h8-18,21-23,36H,4-7,19-20H2,1-3H3",XAAILNNJDMIMON-UHFFFAOYSA-N,CCCCN(CCCC)c1ccc2c(Oc3cc(C)c(Nc4ccccc4)cc3C25OC(=O)c6ccccc56)c1,-7.4042503575,0.3246185347020405,3,G5,532.6840000000002,8.713220000000003,161.1881999999996,40.0,5.0,1.0,5.0,9.0,204.0,4.0,0.0,2.0,6.0,50.8,236.3036951018622,1.512692154995918,1540.0231874767644,Low,False
A-220,"2-ethylhexyl 4-[(4-{[4-(tert-butylcarbamoyl)phenyl]amino}-6-[(4-{[(2-ethylhexyl)oxy]carbonyl}phenyl)amino]-1,3,5-triazin-2-yl)amino]benzoate","InChI=1S/C44H59N7O5/c1-8-12-14-30(10-3)28-55-39(53)33-18-24-36(25-19-33)46-42-48-41(45-35-22-16-32(17-23-35)38(52)51-44(5,6)7)49-43(50-42)47-37-26-20-34(21-27-37)40(54)56-29-31(11-4)15-13-9-2/h16-27,30-31H,8-15,28-29H2,1-7H3,(H,51,52)(H3,45,46,47,48,49,50)",OSCJHTSDLYVCQC-UHFFFAOYSA-N,CCCCC(CC)COC(=O)c1ccc(Nc2nc(Nc3ccc(cc3)C(=O)NC(C)(C)C)nc(Nc4ccc(cc4)C(=O)OCC(CC)CCCC)n2)cc1,-8.1852587653,0.4119543704500001,2,G3,765.9999999999998,10.377099999999992,223.3972999999993,56.0,11.0,4.0,12.0,21.0,300.0,4.0,0.0,0.0,4.0,156.45999999999998,331.5664038052276,1.500952066139594,1746.2812771982633,Low,False
A-225,"2-(2,6-dimethylphenoxy)acetic acid","InChI=1S/C10H12O3/c1-7-4-3-5-8(2)10(7)13-6-9(11)12/h3-5H,6H2,1-2H3,(H,11,12)",MLBCURLNKYKBEQ-UHFFFAOYSA-N,Cc1cccc(C)c1OCC(O)=O,-2.2566445306,0.4791308000418823,3,G5,180.203,1.76684,49.04680000000002,13.0,2.0,1.0,3.0,3.0,70.0,1.0,0.0,0.0,1.0,46.53,76.96047265883006,2.806920561742865,297.69593883291583,High,True
A-237,2-amino-4-nitrophenol,"InChI=1S/C6H6N2O3/c7-5-3-4(8(10)11)1-2-6(5)9/h1-3,9H,7H2",VLZVIIYRNMWPSN-UHFFFAOYSA-N,Nc1cc(ccc1O)[N+]([O-])=O,-2.2056018566,0.0080490716999999,2,G3,154.12499999999997,0.8825999999999998,39.17360000000001,11.0,4.0,2.0,5.0,1.0,58.0,1.0,0.0,0.0,1.0,89.38999999999999,62.21850329120549,3.1515496683060507,297.8789117242989,High,True
A-255,silicon(+4) cation tetraphosphate,"InChI=1S/4H3O4P.3Si/c4*1-5(2,3)4;;;/h4*(H3,1,2,3,4);;;/q;;;;3*+4/p-12",XLUBVTJUEUUZMR-UHFFFAOYSA-B,[Si+4].[Si+4].[Si+4].[O-][P]([O-])([O-])=O.[O-][P]([O-])([O-])=O.[O-][P]([O-])([O-])=O.[O-][P]([O-])([O-])=O,-3.0559869634,0.2953828934682944,3,G5,464.13800000000015,-12.4408,47.68800000000001,23.0,16.0,0.0,23.0,0.0,128.0,0.0,0.0,0.0,0.0,345.0,141.44160072063048,-2.8444444368395062e-08,291.9826350521752,High,True
A-256,1-chlorohexane,"InChI=1S/C6H13Cl/c1-2-3-4-5-6-7/h2-6H2,1H3",MLRVZFYXUZQSRU-UHFFFAOYSA-N,CCCCCCCl,-3.1223887332,0.2279659777999998,2,G3,120.623,2.805500000000001,34.861999999999995,7.0,0.0,0.0,1.0,4.0,44.0,0.0,0.0,0.0,0.0,0.0,50.86722782669426,2.447472887876344,23.36099039894992,High,True
A-262,octan-2-one,"InChI=1S/C8H16O/c1-3-4-5-6-7-8(2)9/h3-7H2,1-2H3",ZPVFWPFBNIEHGJ-UHFFFAOYSA-N,CCCCCCC(C)=O,-2.1536963273,0.0518481636500001,2,G3,128.215,2.5458000000000007,39.440000000000005,9.0,1.0,0.0,1.0,5.0,54.0,0.0,0.0,0.0,0.0,17.07,57.45536792864957,2.828868134909685,76.63682062300136,High,True
A-267,"sodium 2-{2,5-dichloro-4-[(E)-2-(2-methyl-1H-indol-3-yl)diazen-1-yl]benzenesulfonamido}ethane-1-sulfonate","InChI=1S/C17H16Cl2N4O5S2.Na/c1-10-17(11-4-2-3-5-14(11)21-10)23-22-15-8-13(19)16(9-12(15)18)30(27,28)20-6-7-29(24,25)26;/h2-5,8-9,20,22H,6-7H2,1H3,(H,24,25,26);/q;+1/p-1/b23-17+;",IQWBFKOZXPTGNT-YFZNFVDXSA-M,[Na+].CC\1=Nc2ccccc2C1=N/Nc3cc(Cl)c(cc3Cl)[S](=O)(=O)NCC[S]([O-])(=O)=O,-3.7561795168,0.0928182884499999,2,G3,513.3600000000002,-0.2568999999999997,115.58540000000002,31.0,8.0,2.0,14.0,7.0,160.0,2.0,0.0,1.0,3.0,140.12,211.57722608211716,3.413328344718734e-06,1281.422245029319,Medium,False
A-277,dipotassium; oxygen(-2) anion; titanium(+4) cation,InChI=1S/2K.3O.Ti/q2*+1;3*-2;+4,KEWYKJOOCFOYTD-UHFFFAOYSA-N,[O--].[O--].[O--].[K+].[K+].[Ti+4],-5.5836431263,0.3166601883671506,3,G5,174.06,-6.3509,2.0595,6.0,0.0,0.0,6.0,0.0,24.0,0.0,0.0,0.0,0.0,85.5,136.662001050394,-0.0,8.754887502163466,Low,False
A-285,ethanethiol,"InChI=1S/C2H6S/c1-2-3/h3H,2H2,1H3",DNJIEGIFACGWOD-UHFFFAOYSA-N,CCS,-0.8459165595999999,0.1505136241498919,3,G5,62.137,0.9361,19.527,3.0,1.0,1.0,1.0,0.0,20.0,0.0,0.0,0.0,0.0,0.0,26.25925980562788,1.6329931618554523,2.754887502163468,High,True
A-298,1-bromobutane,"InChI=1S/C4H9Br/c1-2-3-4-5/h2-4H2,1H3",MPPPKRYCTPRNTB-UHFFFAOYSA-N,CCCCBr,-2.1977641867,0.0861179066500001,2,G3,137.01999999999998,2.1814,28.701999999999988,5.0,0.0,0.0,1.0,2.0,32.0,0.0,0.0,0.0,0.0,0.0,41.70162497666073,2.19060968716425,11.119415478763749,High,True
A-307,"cobalt(3+) ion 9-(2-carboxyphenyl)-6-(diethylamino)-N,N-diethyl-3H-xanthen-3-iminium bis(3-methyl-4-[(E)-2-(2-oxido-5-{[3-(propan-2-yloxy)propyl]sulfamoyl}phenyl)diazen-1-yl]-1-phenyl-1H-pyrazol-5-olate)","InChI=1S/C28H30N2O3.2C22H27N5O5S.Co/c1-5-29(6-2)19-13-15-23-25(17-19)33-26-18-20(30(7-3)8-4)14-16-24(26)27(23)21-11-9-10-12-22(21)28(31)32;2*1-15(2)32-13-7-12-23-33(30,31)18-10-11-20(28)19(14-18)24-25-21-16(3)26-27(22(21)29)17-8-5-4-6-9-17;/h9-18H,5-8H2,1-4H3;2*4-6,8-11,14-15,23,28-29H,7,12-13H2,1-3H3;/q;;;+3/p-3",WUVJFYRTCZOXAH-UHFFFAOYSA-K,[Co+3].CCN(CC)c1ccc2c(c1)[o+]c3cc(ccc3c2c4ccccc4C(O)=O)N(CC)CC.CC(C)OCCCN[S](=O)(=O)c5ccc([O-])c(c5)N=Nc6c(C)nn(c6[O-])c7ccccc7.CC(C)OCCCN[S](=O)(=O)c8ccc([O-])c(c8)N=Nc9c(C)nn(c9[O-])c%10ccccc%10,-3.2357622441000005,0.0258059252000002,2,G3,1445.578,12.595639999999984,375.0533000000013,100.0,21.0,3.0,28.0,28.0,528.0,10.0,0.0,0.0,10.0,343.2,592.3333202844581,2.096268605594414e-07,4439.27982799228,High,True
A-310,"1,4-dichloro-2-nitrobenzene",InChI=1S/C6H3Cl2NO2/c7-4-1-2-5(8)6(3-4)9(10)11/h1-3H,RZKKOBGFCAHLCZ-UHFFFAOYSA-N,[O-][N+](=O)c1cc(Cl)ccc1Cl,-3.3642253983,0.375242360308355,3,G5,192.001,2.9016,43.11640000000001,11.0,2.0,0.0,5.0,1.0,58.0,1.0,0.0,0.0,1.0,43.14,72.6909112957601,3.232208870305491,300.6337992264624,High,True
A-316,"4,4'-Isopropylidenediphenol, oligomeric reaction products with 1-chloro-2,3-epoxypropane, esters with acrylic acid","InChI=1S/C15H16O2.C3H5ClO.C3H4O2/c1-15(2,11-3-7-13(16)8-4-11)12-5-9-14(17)10-6-12;4-1-3-2-5-3;1-2-3(4)5/h3-10,16-17H,1-2H3;3H,1-2H2;2H,1H2,(H,4,5)",RYSXGWPNVZQNNB-UHFFFAOYSA-N,CC(C)(c1ccc(O)cc1)c2ccc(O)cc2.OC(=O)C=C.ClCC3CO3,-3.6804449633,0.3855157545999998,2,G3,392.87900000000025,4.304700000000003,106.63440000000004,27.0,4.0,3.0,6.0,4.0,146.0,2.0,1.0,1.0,3.0,90.29,164.05023928949583,2.982272613623373e-07,671.7421158543812,High,True
A-323,pentyl propanoate,"InChI=1S/C8H16O2/c1-3-5-6-7-10-8(9)4-2/h3-7H2,1-2H3",TWSRVQVEYJNFKQ-UHFFFAOYSA-N,CCCCCOC(=O)CC,-2.2505224040000003,0.4852612020000001,2,G3,144.21399999999997,2.1298000000000004,40.775000000000006,10.0,2.0,0.0,2.0,5.0,60.0,0.0,0.0,0.0,0.0,26.3,62.568913158156434,2.9617756061821483,89.25838096618138,High,True
A-324,"1-chloro-1,2,2-trifluoroethene",InChI=1S/C2ClF3/c3-1(4)2(5)6,UUAGAQFQZIEFAH-UHFFFAOYSA-N,FC(F)=C(F)Cl,-2.1609542979,0.3739782325,2,G3,116.469,2.2603,16.203000000000003,6.0,0.0,0.0,4.0,0.0,36.0,0.0,0.0,0.0,0.0,0.0,37.21446254570228,3.675948764555208,58.862383112184006,High,True
A-328,11-aminoundecanoic acid,"InChI=1S/C11H23NO2/c12-10-8-6-4-2-1-3-5-7-9-11(13)14/h1-10,12H2,(H,13,14)",GUOSQNAUYHMCRU-UHFFFAOYSA-N,NCCCCCCCCCCC(O)=O,-2.4007753619,0.1963733118863878,5,G5,201.31,2.5406000000000004,58.24320000000004,14.0,2.0,2.0,3.0,10.0,84.0,0.0,0.0,0.0,0.0,63.32,86.68431872104816,2.884064614706359,137.24922110379617,High,True
A-331,(5Z)-5-ethylidenebicyclo[2.2.1]hept-2-ene,"InChI=1S/C9H12/c1-2-8-5-7-3-4-9(8)6-7/h2-4,7,9H,5-6H2,1H3/b8-2+",OJOWICOBYCXEKR-KRXBUXKQSA-N,C\C=C1/CC2CC1C=C2,-3.1767964148,0.4768517925999997,2,G3,120.19499999999996,2.5287000000000006,39.111,9.0,0.0,0.0,0.0,0.0,48.0,0.0,1.0,2.0,2.0,0.0,56.26791957157544,2.289029629311208,174.47733175670794,High,True
A-343,cadmium,InChI=1S/Cd/q+2,WLZRMCYVCSSEQC-UHFFFAOYSA-N,[Cd++],-4.1112934221,0.2888957083000001,2,G3,112.412,-0.0025,0.0,1.0,0.0,0.0,1.0,0.0,0.0,0.0,0.0,0.0,0.0,0.0,27.651029333465317,0.0,0.0,Medium,False
A-356,ethanol,"InChI=1S/C2H6O/c1-2-3/h3H,2H2,1H3",LFQSCWFLJHTTHZ-UHFFFAOYSA-N,CCO,1.2336682179,0.0968628493414177,3,G5,46.069,-0.0014,12.759800000000002,3.0,1.0,1.0,1.0,0.0,20.0,0.0,0.0,0.0,0.0,20.23,19.89842689442217,1.6329931618554523,2.754887502163468,High,True