ID,Name,InChI,InChIKey,SMILES,Solubility,SD,Ocurrences,Group,MolWt,MolLogP,MolMR,HeavyAtomCount,NumHAcceptors,NumHDonors,NumHeteroatoms,NumRotatableBonds,NumValenceElectrons,NumAromaticRings,NumSaturatedRings,NumAliphaticRings,RingCount,TPSA,LabuteASA,BalabanJ,BertzCT,bin,is_sol
A-2225,"(1R,4E,9S)-4,11,11-trimethyl-8-methylidenebicyclo[7.2.0]undec-4-ene","InChI=1S/C15H24/c1-11-6-5-7-12(2)13-10-15(3,4)14(13)9-8-11/h6,13-14H,2,5,7-10H2,1,3-4H3/b11-6+/t13-,14-/m1/s1",NPNUFJAVOOONJE-GFUGXAQUSA-N,C\C1=C/CCC(=C)[C@H]2CC(C)(C)[C@@H]2CC1,-6.3372616649,0.0143225907499999,2,G3,204.357,4.7252000000000045,66.74300000000005,15.0,0.0,0.0,0.0,0.0,84.0,0.0,1.0,2.0,2.0,0.0,94.45757225795508,2.119623126378003,293.1601712439863,Low,False
A-2231,2-(benzyloxy)naphthalene,"InChI=1S/C17H14O/c1-2-6-14(7-3-1)13-18-17-11-10-15-8-4-5-9-16(15)12-17/h1-12H,13H2",WLTCCDHHWYAMCG-UHFFFAOYSA-N,C(Oc1ccc2ccccc2c1)c3ccccc3,-6.4776739787,0.2303654192999999,2,G3,234.298,4.418800000000003,74.72200000000004,18.0,1.0,0.0,1.0,3.0,88.0,3.0,0.0,0.0,3.0,9.23,106.6486492011997,1.78737619501489,643.8355604705517,Low,False
A-2238,"Terphenyl, hydrogenated","InChI=1S/C18H22/c1-3-7-15(8-4-1)17-11-13-18(14-12-17)16-9-5-2-6-10-16/h1,3,5,9,11-16H,2,4,6-8,10H2",TVBYFUMVFJKKNJ-UHFFFAOYSA-N,C1CC=CC(C1)c2ccc(cc2)C3CCC=CC3,-6.5919290491,0.0588800759499998,2,G3,238.374,5.334000000000004,77.90600000000005,18.0,0.0,0.0,0.0,2.0,94.0,1.0,0.0,2.0,3.0,0.0,110.41984012082928,1.736105834392174,435.61104413490807,Low,False
A-2267,"octamethyl-1,3,5,7,2,4,6,8-tetraoxatetrasilocane","InChI=1S/C8H24O4Si4/c1-13(2)9-14(3,4)11-16(7,8)12-15(5,6)10-13/h1-8H3",HMMGMWAXVFQUOA-UHFFFAOYSA-N,C[Si]1(C)O[Si](C)(C)O[Si](C)(C)O[Si](C)(C)O1,-6.953686490700001,0.4081905978218147,5,G5,296.62,2.873600000000001,74.26800000000004,16.0,4.0,0.0,8.0,0.0,96.0,0.0,1.0,1.0,1.0,36.92,103.25277280587856,2.977060745318193,205.21187563522585,Low,False
A-2284,"4,11-diamino-2-(3-methoxypropyl)-1H,2H,3H,5H,10H-naphtho[2,3-f]isoindole-1,3,5,10-tetrone","InChI=1S/C20H17N3O5/c1-28-8-4-7-23-19(26)13-14(20(23)27)16(22)12-11(15(13)21)17(24)9-5-2-3-6-10(9)18(12)25/h2-3,5-6H,4,7-8,21-22H2,1H3",WBCXRDHKXHADQF-UHFFFAOYSA-N,COCCCN1C(=O)c2c(N)c3C(=O)c4ccccc4C(=O)c3c(N)c2C1=O,-7.323792769,0.4286662482000003,2,G3,379.3720000000002,0.4649999999999996,109.71980000000006,28.0,8.0,2.0,8.0,4.0,142.0,4.0,0.0,0.0,4.0,134.48,156.79471210360603,2.2475277234697733,1370.536182552026,Low,False
A-2301,"2-ethylhexyl 4-({bis[(4-{[(2-ethylhexyl)oxy]carbonyl}phenyl)amino]-1,3,5-triazin-2-yl}amino)benzoate","InChI=1S/C48H66N6O6/c1-7-13-16-34(10-4)31-58-43(55)37-19-25-40(26-20-37)49-46-52-47(50-41-27-21-38(22-28-41)44(56)59-32-35(11-5)17-14-8-2)54-48(53-46)51-42-29-23-39(24-30-42)45(57)60-33-36(12-6)18-15-9-3/h19-30,34-36H,7-18,31-33H2,1-6H3,(H3,49,50,51,52,53,54)",JGUMTYWKIBJSTN-UHFFFAOYSA-N,CCCCC(CC)COC(=O)c1ccc(Nc2nc(Nc3ccc(cc3)C(=O)OCC(CC)CCCC)nc(Nc4ccc(cc4)C(=O)OCC(CC)CCCC)n2)cc1,-8.2164783763,0.3823215958508873,4,G5,823.0919999999999,12.221999999999984,239.76659999999916,60.0,12.0,3.0,12.0,27.0,324.0,4.0,0.0,0.0,4.0,153.65999999999997,356.58985530871286,1.485749355584545,1657.3090105606504,Low,False
A-2312,2-[(4-{[2-(4-cyclohexylphenoxy)ethyl](ethyl)amino}-2-methylphenyl)methylidene]propanedinitrile,"InChI=1S/C27H31N3O/c1-3-30(26-12-9-25(21(2)17-26)18-22(19-28)20-29)15-16-31-27-13-10-24(11-14-27)23-7-5-4-6-8-23/h9-14,17-18,23H,3-8,15-16H2,1-2H3",NQAJBKZEQYYFGK-UHFFFAOYSA-N,CCN(CCOc1ccc(cc1)C2CCCCC2)c3ccc(C=C(C#N)C#N)c(C)c3,-8.3860948559,0.3090453912694317,3,G5,413.5650000000001,6.378580000000007,126.03200000000008,31.0,4.0,0.0,4.0,8.0,160.0,2.0,1.0,1.0,3.0,60.05,185.9257331184444,1.5659081484278023,957.0216308894232,Low,False
A-2335,"1,3,5,7-tetranitro-1,3,5,7-tetrazocane",InChI=1S/C4H8N8O8/c13-9(14)5-1-6(10(15)16)3-8(12(19)20)4-7(2-5)11(17)18/h1-4H2,UZGLIIJVICEWHF-UHFFFAOYSA-N,[O-][N+](=O)N1CN(CN(CN(C1)[N+]([O-])=O)[N+]([O-])=O)[N+]([O-])=O,-4.8251168095,0.0806110919161939,3,G5,296.156,-2.195199999999998,54.8016,20.0,8.0,0.0,16.0,4.0,112.0,0.0,1.0,1.0,1.0,185.52,108.36002786924271,3.018981601296637,352.1928094887363,Low,False
A-2352,methyl methanesulfonate,"InChI=1S/C2H6O3S/c1-5-6(2,3)4/h1-2H3",MBABOKRGFJTBAE-UHFFFAOYSA-N,CO[S](C)(=O)=O,-0.0419214127999999,0.1505149978,2,G3,110.134,-0.4075999999999999,21.85279999999999,6.0,3.0,0.0,4.0,1.0,38.0,0.0,0.0,0.0,0.0,43.370000000000005,37.05214062957765,3.850621638983669,110.75488750216348,High,True
A-2378,2-(4-{2-[4-(oxiran-2-ylmethoxy)phenyl]propan-2-yl}phenoxymethyl)oxirane,"InChI=1S/C21H24O4/c1-21(2,15-3-7-17(8-4-15)22-11-19-13-24-19)16-5-9-18(10-6-16)23-12-20-14-25-20/h3-10,19-20H,11-14H2,1-2H3",LCFVJGUPQDGYKZ-UHFFFAOYSA-N,CC(C)(c1ccc(OCC2CO2)cc1)c3ccc(OCC4CO4)cc3,-4.7996200318,0.0927410918015866,3,G5,340.4190000000001,3.567700000000002,95.48200000000006,25.0,4.0,0.0,4.0,8.0,132.0,2.0,2.0,2.0,4.0,43.52,148.21549496609953,1.412414127527279,636.1808377852377,Low,False
A-2382,"N,N-dimethyldodecan-1-amine","InChI=1S/C14H31N/c1-4-5-6-7-8-9-10-11-12-13-14-15(2)3/h4-14H2,1-3H3",YWFWDNVOPHGWMX-UHFFFAOYSA-N,CCCCCCCCCCCCN(C)C,-4.4261227438,0.4036531141055087,3,G5,213.409,4.468900000000004,70.39800000000007,15.0,1.0,0.0,1.0,11.0,92.0,0.0,0.0,0.0,0.0,3.24,97.24333218518883,2.8668131304135893,109.90632784293425,Medium,False
A-2384,"tetrasodium 5-({4-chloro-6-[ethyl(phenyl)amino]-1,3,5-triazin-2-yl}amino)-3-[(E)-2-(1,5-disulfonatonaphthalen-2-yl)diazen-1-yl]-4-hydroxynaphthalene-2,7-disulfonate","InChI=1S/C31H24ClN7O13S4.4Na/c1-2-39(17-7-4-3-5-8-17)31-35-29(32)34-30(36-31)33-22-15-18(53(41,42)43)13-16-14-24(55(47,48)49)26(27(40)25(16)22)38-37-21-12-11-19-20(28(21)56(50,51)52)9-6-10-23(19)54(44,45)46;;;;/h3-15,40H,2H2,1H3,(H,41,42,43)(H,44,45,46)(H,47,48,49)(H,50,51,52)(H,33,34,35,36);;;;/q;4*+1/p-4",DSVQPTKJDZFKIP-UHFFFAOYSA-J,[Na+].[Na+].[Na+].[Na+].CCN(c1ccccc1)c2nc(Cl)nc(Nc3cc(cc4cc(c(N=Nc5ccc6c(cccc6[S]([O-])(=O)=O)c5[S]([O-])(=O)=O)c(O)c34)[S]([O-])(=O)=O)[S]([O-])(=O)=O)n2,-0.5025263499,0.0265392217,2,G3,954.2180000000004,-7.51360000000001,192.83129999999983,60.0,20.0,2.0,29.0,11.0,292.0,6.0,0.0,0.0,6.0,327.68999999999994,435.3769591811803,3.100830645523257e-06,3103.617499007708,High,True
A-2385,1-chloro-4-(3-chlorophenoxy)benzene,InChI=1S/C12H8Cl2O/c13-9-4-6-11(7-5-9)15-12-3-1-2-10(14)8-12/h1-8H,HPRGYUWRGCTBAV-UHFFFAOYSA-N,Clc1ccc(Oc2cccc(Cl)c2)cc1,-5.3873553168,0.3327589637268531,3,G5,239.101,4.785700000000003,62.97800000000003,15.0,1.0,0.0,3.0,2.0,76.0,2.0,0.0,0.0,2.0,9.23,98.20857500883122,2.181769270376125,451.43422798064194,Low,False
A-2393,"(3E)-3-methyl-4-(2,6,6-trimethylcyclohex-2-en-1-yl)but-3-en-2-one","InChI=1S/C14H22O/c1-10-7-6-8-14(4,5)13(10)9-11(2)12(3)15/h7,9,13H,6,8H2,1-5H3/b11-9-",JRJBVWJSTHECJK-LUAWRHEFSA-N,CC(=O)C(\C)=C/C1C(=CCCC1(C)C)C,-3.9923409786,0.0590496560499997,2,G3,206.32899999999992,3.904200000000003,64.70000000000005,15.0,1.0,0.0,1.0,2.0,84.0,0.0,0.0,1.0,1.0,17.07,93.25998339713148,3.0004016609086728,318.2304019029792,Medium,False
A-2395,3-oxo-N-[4-(3-oxobutanamido)phenyl]butanamide,"InChI=1S/C14H16N2O4/c1-9(17)7-13(19)15-11-3-5-12(6-4-11)16-14(20)8-10(2)18/h3-6H,7-8H2,1-2H3,(H,15,19)(H,16,20)",OWGNKUKYZPVEFS-UHFFFAOYSA-N,CC(=O)CC(=O)Nc1ccc(NC(=O)CC(C)=O)cc1,-3.1275010898000004,0.1016643388,2,G3,276.292,1.5217999999999998,74.29740000000002,20.0,4.0,2.0,6.0,6.0,106.0,1.0,0.0,0.0,1.0,92.34,116.096752802061,2.55723407622722,485.6098145826132,High,True
A-2428,tetraethylplumbane,"InChI=1S/4C2H5.Pb/c4*1-2;/h4*1H2,2H3;",MRMOZBOQVYRSEM-UHFFFAOYSA-N,CC[Pb](CC)(CC)CC,-5.4128944571,0.3805622953980627,3,G5,323.4480000000001,3.514800000000003,47.678000000000026,9.0,0.0,0.0,1.0,4.0,56.0,0.0,0.0,0.0,0.0,0.0,64.69309592260046,3.824684203207495,47.45811190640113,Low,False
A-2433,cerium(3+) ion trifluoride,InChI=1S/Ce.3FH/h;3*1H/q+3;;;/p-3,QCCDYNYSHILRDG-UHFFFAOYSA-K,[F-].[F-].[F-].[Ce+3],-5.8633448938,0.4225202739292101,4,G5,197.11,-8.988,0.0,4.0,0.0,0.0,4.0,0.0,25.0,0.0,0.0,0.0,0.0,0.0,55.43722415147092,-0.0,3.2451124978365318,Low,False
A-2434,triphenylphosphane,InChI=1S/C18H15P/c1-4-10-16(11-5-1)19(17-12-6-2-7-13-17)18-14-8-3-9-15-18/h1-15H,RIOQSEWOXXDEQQ-UHFFFAOYSA-N,c1ccc(cc1)P(c2ccccc2)c3ccccc3,-6.201301100399999,0.1316207174000001,2,G3,262.29200000000003,3.4448000000000016,85.14800000000004,19.0,0.0,0.0,1.0,3.0,92.0,3.0,0.0,0.0,3.0,0.0,115.0452769124983,2.1210106325672244,523.7138976114098,Low,False
A-2458,"2-{2-[(8E)-heptadec-8-en-1-yl]-4,5-dihydro-1H-imidazol-1-yl}ethan-1-ol","InChI=1S/C22H42N2O/c1-2-3-4-5-6-7-8-9-10-11-12-13-14-15-16-17-22-23-18-19-24(22)20-21-25/h9-10,25H,2-8,11-21H2,1H3/b10-9-",WGTDLPBPQKAPMN-KTKRTIGZSA-N,CCCCCCCC\C=C/CCCCCCCC1=NCCN1CCO,-3.8458307588,0.1505149978,2,G3,350.59100000000007,5.730300000000007,110.41280000000008,25.0,3.0,1.0,3.0,17.0,146.0,0.0,0.0,1.0,1.0,35.83,156.15699115270436,1.818913362245287,351.9363823393707,Medium,False
A-2464,"Alcohols, C16-18 and C18-unsatd., ethoxylated","InChI=1S/C20H40O/c1-3-5-6-7-8-9-10-11-12-13-14-15-16-17-18-19-20-21-4-2/h5-6H,3-4,7-20H2,1-2H3/b6-5+",WBCCOWHDSAVXAO-AATRIKPKSA-N,CCOCCCCCCCCCCCCCC\C=C\CC,-4.7999839607,0.3454748682499997,2,G3,296.539,7.060400000000008,95.94500000000008,21.0,1.0,0.0,1.0,17.0,126.0,0.0,0.0,0.0,0.0,9.23,134.09709339868778,2.946021280396973,198.01509520064772,Low,False
A-2479,"2,3-dimethylpentane; 2-methylpentane; 3-methylhexane; 3-methylpentane","InChI=1S/2C7H16.2C6H14/c1-5-7(4)6(2)3;1-4-6-7(3)5-2;1-4-5-6(2)3;1-4-6(3)5-2/h6-7H,5H2,1-4H3;7H,4-6H2,1-3H3;2*6H,4-5H2,1-3H3",KFBRQWHEGZEJKU-UHFFFAOYSA-N,CCCC(C)C.CCCC(C)CC.CCC(C)CC.CCC(C)C(C)C,-3.2704062978,0.4312300999907223,5,G5,372.7660000000001,10.406099999999997,128.14800000000014,26.0,0.0,0.0,0.0,9.0,164.0,0.0,0.0,0.0,0.0,0.0,170.88029734833245,-1.2447368348946264e-07,200.0838499786226,High,True
A-2481,pent-2-ene,"InChI=1S/C5H10/c1-3-5-4-2/h3,5H,4H2,1-2H3/b5-3+",QMMOXUPEWRXHJS-HWKANZROSA-N,CC\C=C\C,-2.5449048057,0.4312300999792298,5,G5,70.135,1.9725,25.10499999999999,5.0,0.0,0.0,0.0,1.0,30.0,0.0,0.0,0.0,0.0,0.0,33.50941645323172,2.622415807990217,27.019550008653876,High,True
A-2490,(1-ethoxy-1-oxopropan-2-yl) 5-[2-chloro-4-(trifluoromethyl)phenoxy]-2-nitrobenzoate,"InChI=1S/C19H15ClF3NO7/c1-3-29-17(25)10(2)30-18(26)13-9-12(5-6-15(13)24(27)28)31-16-7-4-11(8-14(16)20)19(21,22)23/h4-10H,3H2,1-2H3",CONWAEURSVPLRM-UHFFFAOYSA-N,CCOC(=O)C(C)OC(=O)c1cc(Oc2ccc(cc2Cl)C(F)(F)F)ccc1[N+]([O-])=O,-6.6230386723,0.0206806638499998,2,G3,461.77600000000007,5.167700000000004,101.13490000000006,31.0,7.0,0.0,12.0,7.0,166.0,2.0,0.0,0.0,2.0,104.97,178.15962017310562,2.3223255073974527,1010.4813019769564,Low,False
A-2497,"Butene, homopolymer (products derived from either/or But-1-ene/But-2-ene)","InChI=1S/2C4H8/c2*1-3-4-2/h3-4H,1-2H3;3H,1,4H2,2H3/b4-3+;",WTOOLIQYCQJDBG-BJILWQEISA-N,CCC=C.C\C=C\C,-4.6698435423,0.1901056208499998,2,G3,112.21599999999998,3.1648000000000023,40.976000000000006,8.0,0.0,0.0,0.0,1.0,48.0,0.0,0.0,0.0,0.0,0.0,52.92047091776652,0.0,47.058650025961626,Low,False
A-2498,2-[(heptanoyloxy)methyl]-3-hydroxy-2-[(pentanoyloxy)methyl]propyl nonanoate,"InChI=1S/C9H18O2.C7H14O2.C5H12O4.C5H10O2/c1-2-3-4-5-6-7-8-9(10)11;1-2-3-4-5-6-7(8)9;6-1-5(2-7,3-8)4-9;1-2-3-4-5(6)7/h2-8H2,1H3,(H,10,11);2-6H2,1H3,(H,8,9);6-9H,1-4H2;2-4H2,1H3,(H,6,7)",OWFZZECENILGEX-UHFFFAOYSA-N,CCCCCCCCC(O)=O.CCCCCCC(O)=O.CCCCC(O)=O.OCC(CO)(CO)CO,-5.4183738573,0.0864311445000001,2,G3,526.7080000000004,4.066200000000005,139.96060000000006,36.0,7.0,7.0,10.0,19.0,218.0,0.0,0.0,0.0,0.0,192.82,216.92449991383583,-1.9191826129872581e-07,461.8355803314348,Low,False
A-2507,"1H-1,3-benzodiazole-2-thiol","InChI=1S/C7H6N2S/c10-7-8-5-3-1-2-4-6(5)9-7/h1-4H,(H2,8,9,10)",YHMYGUUIMTVXNW-UHFFFAOYSA-N,S=C1Nc2ccccc2N1,-2.176687281,0.3837203279085023,3,G5,150.206,2.22549,43.4834,10.0,1.0,2.0,3.0,0.0,50.0,2.0,0.0,0.0,2.0,31.58,62.900656300397856,3.007619546803024,362.89835341124046,High,True
A-2512,"N,N',N'',N'''-tetrakis(4,6-bis(butyl-(N-methyl-2,2,6,6-tetramethylpiperidin-4-yl)amino)triazin-2-yl)-4,7-diazadecane-1,10-diamine","InChI=1S/C132H250N32/c1-49-57-71-157(97-81-117(9,10)147(41)118(11,12)82-97)109-135-105(136-110(143-109)158(72-58-50-2)98-83-119(13,14)148(42)120(15,16)84-98)133-67-65-69-155(107-139-113(161(75-61-53-5)101-89-125(25,26)151(45)126(27,28)90-101)145-114(140-107)162(76-62-54-6)102-91-127(29,30)152(46)128(31,32)92-102)79-80-156(108-141-115(163(77-63-55-7)103-93-129(33,34)153(47)130(35,36)94-103)146-116(142-108)164(78-64-56-8)104-95-131(37,38)154(48)132(39,40)96-104)70-66-68-134-106-137-111(159(73-59-51-3)99-85-121(17,18)149(43)122(19,20)86-99)144-112(138-106)160(74-60-52-4)100-87-123(21,22)150(44)124(23,24)88-100/h97-104H,49-96H2,1-48H3,(H,133,135,136,143)(H,134,137,138,144)",OWXXKGVQBCBSFJ-UHFFFAOYSA-N,CCCCN(C1CC(C)(C)N(C)C(C)(C)C1)c2nc(NCCCN(CCN(CCCNc3nc(nc(n3)N(CCCC)C4CC(C)(C)N(C)C(C)(C)C4)N(CCCC)C5CC(C)(C)N(C)C(C)(C)C5)c6nc(nc(n6)N(CCCC)C7CC(C)(C)N(C)C(C)(C)C7)N(CCCC)C8CC(C)(C)N(C)C(C)(C)C8)c9nc(nc(n9)N(CCCC)C%10CC(C)(C)N(C)C(C)(C)C%10)N(CCCC)C%11CC(C)(C)N(C)C(C)(C)C%11)nc(n2)N(CCCC)C%12CC(C)(C)N(C)C(C)(C)C%12,-5.3590146681,0.3494850021999998,2,G3,2285.675999999996,25.80720000000005,699.5234000000031,164.0,32.0,2.0,32.0,55.0,938.0,4.0,8.0,8.0,12.0,237.06,1003.7615964392846,1.1168427564425218,4609.941411523989,Low,False
A-2526,"Alcohols, C12-15-branched and linear","InChI=1S/C12H26O/c1-3-5-6-9-12(8-4-2)10-7-11-13/h12-13H,3-11H2,1-2H3/t12-/m0/s1",YJIYBYOWBOONOU-LBPRGKRZSA-N,CCCCC[C@H](CCC)CCCO,-5.1563604082,0.1054266826500001,2,G3,186.339,3.7555000000000023,58.85980000000006,13.0,1.0,1.0,1.0,9.0,80.0,0.0,0.0,0.0,0.0,20.23,83.54784803838827,3.411278509533132,91.12526634448808,Low,False
A-2528,"1,1-bis(tert-butylperoxy)cyclohexane","InChI=1S/C14H28O4/c1-12(2,3)15-17-14(10-8-7-9-11-14)18-16-13(4,5)6/h7-11H2,1-6H3",HSLFISVKRDQEBY-UHFFFAOYSA-N,CC(C)(C)OOC1(CCCCC1)OOC(C)(C)C,-5.386213837300001,0.0146918888499998,2,G3,260.3739999999999,4.140200000000004,69.66200000000006,18.0,4.0,0.0,4.0,4.0,108.0,0.0,1.0,1.0,1.0,36.92,110.79043891096036,2.5743031500553983,223.50005622532865,Low,False
A-2538,"1,2-Dihydro-2,2,4-trimethylquinoline, oligomers","InChI=1S/C12H15N/c1-9-8-12(2,3)13-11-7-5-4-6-10(9)11/h4-8,13H,1-3H3",ZNRLMGFXSPUZNR-UHFFFAOYSA-N,CC1=CC(C)(C)Nc2ccccc12,-5.238695803500001,0.47214287463337,4,G5,173.259,3.2940000000000014,57.794700000000034,13.0,1.0,1.0,1.0,0.0,68.0,1.0,0.0,1.0,2.0,12.03,79.47548380377118,2.54974883069777,361.1421555222323,Low,False
A-2540,1-chlorooctane,"InChI=1S/C8H17Cl/c1-2-3-4-5-6-7-8-9/h2-8H2,1H3",CNDHHGUSRIZDSL-UHFFFAOYSA-N,CCCCCCCCCl,-5.1722437893,0.3446544295500002,2,G3,148.67700000000002,3.5857000000000028,44.09600000000002,9.0,0.0,0.0,1.0,6.0,56.0,0.0,0.0,0.0,0.0,0.0,63.597112055487486,2.595082706793886,37.83229392178728,Low,False
A-2545,"2-(2H-1,2,3-benzotriazol-2-yl)-4-methylphenol","InChI=1S/C13H11N3O/c1-9-6-7-13(17)12(8-9)16-14-10-4-2-3-5-11(10)15-16/h2-8,17H,1H3",MCPKSFINULVDNX-UHFFFAOYSA-N,Cc1ccc(O)c(c1)n2nc3ccccc3n2,-5.3526667277,0.3809769484500003,2,G3,225.251,2.43452,65.26680000000002,17.0,4.0,1.0,4.0,1.0,84.0,3.0,0.0,0.0,3.0,50.94,98.12467273020091,2.231574637429138,654.9473648267207,Low,False
A-2547,2-[2-(2-{[3-(3-tert-butyl-4-hydroxy-5-methylphenyl)propanoyl]oxy}ethoxy)ethoxy]ethyl 3-(3-tert-butyl-4-hydroxy-5-methylphenyl)propanoate,"InChI=1S/C34H50O8/c1-23-19-25(21-27(31(23)37)33(3,4)5)9-11-29(35)41-17-15-39-13-14-40-16-18-42-30(36)12-10-26-20-24(2)32(38)28(22-26)34(6,7)8/h19-22,37-38H,9-18H2,1-8H3",QSRJVOOOWGXUDY-UHFFFAOYSA-N,Cc1cc(CCC(=O)OCCOCCOCCOC(=O)CCc2cc(C)c(O)c(c2)C(C)(C)C)cc(c1O)C(C)(C)C,-5.7684649408,0.4914833303499994,2,G3,586.7660000000003,5.994640000000008,163.28559999999968,42.0,8.0,2.0,8.0,15.0,234.0,2.0,0.0,0.0,2.0,111.52,250.8829164647936,1.5299518527780336,1093.9939028350352,Low,False
A-2589,undec-3-ene,"InChI=1S/C11H22/c1-3-5-7-9-11-10-8-6-4-2/h5,7H,3-4,6,8-11H2,1-2H3/b7-5+",SDTYFWAQLSIEBH-FNORWQNLSA-N,CCCCCCC\C=C\CC,-5.1883574821,0.039590623,2,G3,154.29699999999997,4.313100000000004,52.80700000000004,11.0,0.0,0.0,0.0,7.0,66.0,0.0,0.0,0.0,0.0,0.0,71.69906913961137,2.8452531812362967,82.03910001730776,Low,False
A-2643,"1,6-bis(7-methyloctyl) hexanedioate","InChI=1S/C24H46O4/c1-21(2)15-9-5-7-13-19-27-23(25)17-11-12-18-24(26)28-20-14-8-6-10-16-22(3)4/h21-22H,5-20H2,1-4H3",AYWLCKHHUFBVGJ-UHFFFAOYSA-N,CC(C)CCCCCCOC(=O)CCCCC(=O)OCCCCCCC(C)C,-6.6005678007,0.5,2,G3,398.6280000000002,6.8462000000000085,116.2320000000001,28.0,4.0,0.0,4.0,19.0,166.0,0.0,0.0,0.0,0.0,52.60000000000001,173.68305431805288,3.343835773533131,340.80143790415167,Low,False
A-2665,dodecanoyl dodecaneperoxoate,"InChI=1S/C24H46O4/c1-3-5-7-9-11-13-15-17-19-21-23(25)27-28-24(26)22-20-18-16-14-12-10-8-6-4-2/h3-22H2,1-2H3",YIVJZNGAASQVEM-UHFFFAOYSA-N,CCCCCCCCCCCC(=O)OOC(=O)CCCCCCCCCCC,-6.6005678007,0.23856062735,2,G3,398.6280000000004,7.829600000000009,115.8720000000001,28.0,4.0,0.0,4.0,20.0,166.0,0.0,0.0,0.0,0.0,52.6,173.6123496337912,3.3171020835488734,320.51431100532824,Low,False
A-2736,"2-(2H-1,2,3-benzotriazol-2-yl)-4,6-bis(2-phenylpropan-2-yl)phenol","InChI=1S/C30H29N3O/c1-29(2,21-13-7-5-8-14-21)23-19-24(30(3,4)22-15-9-6-10-16-22)28(34)27(20-23)33-31-25-17-11-12-18-26(25)32-33/h5-20,34H,1-4H3",OLFNXLXEGXRUOI-UHFFFAOYSA-N,CC(C)(c1ccccc1)c2cc(n3nc4ccccc4n3)c(O)c(c2)C(C)(C)c5ccccc5,-7.0488126213,0.4515449934500002,2,G3,447.58200000000016,6.777900000000007,137.6697999999999,34.0,4.0,1.0,4.0,5.0,170.0,5.0,0.0,0.0,5.0,50.94,200.063571714312,1.776607780031092,1417.9762234792472,Low,False
A-2767,(13Z)-N-octadecyldocos-13-enamide,"InChI=1S/C40H79NO/c1-3-5-7-9-11-13-15-17-19-21-22-23-24-26-28-30-32-34-36-38-40(42)41-39-37-35-33-31-29-27-25-20-18-16-14-12-10-8-6-4-2/h17,19H,3-16,18,20-39H2,1-2H3,(H,41,42)/b19-17-",FUSNPOOETKRESL-ZPHPHTNESA-N,CCCCCCCCCCCCCCCCCCNC(=O)CCCCCCCCCCC\C=C/CCCCCCCC,-7.770909422999999,0.3494850021499993,2,G3,590.0780000000001,13.961999999999971,190.47569999999936,42.0,1.0,1.0,2.0,36.0,250.0,0.0,0.0,0.0,0.0,29.1,265.9937747407649,3.1751509452106474,527.7315600189113,Low,False
A-2779,N-octadecyloctadecanamide,"InChI=1S/C36H73NO/c1-3-5-7-9-11-13-15-17-19-21-23-25-27-29-31-33-35-37-36(38)34-32-30-28-26-24-22-20-18-16-14-12-10-8-6-4-2/h3-35H2,1-2H3,(H,37,38)",DJWFNQUDPJTSAD-UHFFFAOYSA-N,CCCCCCCCCCCCCCCCCCNC(=O)CCCCCCCCCCCCCCCCC,-7.729153446000001,0.3520752584000006,2,G3,535.9860000000004,12.62559999999998,172.1016999999996,38.0,1.0,1.0,2.0,33.0,228.0,0.0,0.0,0.0,0.0,29.1,241.22360931536275,3.1372046616517357,435.0581930499222,Low,False
A-2805,"2,2-dichloro-1-(3-methyl-2,3-dihydro-1,4-benzoxazin-4-yl)ethanone","InChI=1S/C11H11Cl2NO2/c1-7-6-16-9-5-3-2-4-8(9)14(7)11(15)10(12)13/h2-5,7,10H,6H2,1H3",PFJJMJDEVDLPNE-UHFFFAOYSA-N,CC1COc2ccccc2N1C(=O)C(Cl)Cl,-3.8353901487,0.1393549256499997,2,G3,260.12,2.6042000000000005,64.37900000000003,16.0,2.0,0.0,5.0,1.0,86.0,1.0,0.0,1.0,2.0,29.54,103.89171599146812,2.404984323080204,408.7259654533223,Medium,False
A-2819,4-aminobenzonitrile,"InChI=1S/C7H6N2/c8-5-6-1-3-7(9)4-2-6/h1-4H,9H2",YBAZINRZQSAIAY-UHFFFAOYSA-N,Nc1ccc(cc1)C#N,-1.1429743647,0.0104669534,2,G3,118.139,1.1404800000000002,35.569400000000016,9.0,2.0,1.0,2.0,0.0,44.0,1.0,0.0,0.0,1.0,49.81,53.528815612375,3.05603839622726,230.0882179862608,High,True
A-2823,2-(carboxyoxy)ethyl hydrogen carbonate,InChI=1S/C3H4O3/c4-3-5-1-2-6-3/h1-2H2,KMTRUDSVKNLOMY-UHFFFAOYSA-N,O=C1OCCO1,0.9461910524,0.0545044738,2,G3,88.062,0.1532,17.299999999999997,6.0,3.0,0.0,3.0,0.0,34.0,0.0,1.0,1.0,1.0,35.53,34.85191666215107,2.3673518510178746,60.43856189774725,High,True
A-2824,2-methylidenebutanedioic acid,"InChI=1S/C5H6O4/c1-3(5(8)9)2-4(6)7/h1-2H2,(H,6,7)(H,8,9)",LVHBHZANLOWSRM-UHFFFAOYSA-N,OC(=O)CC(=C)C(O)=O,-0.2250282975,0.01751414875,2,G3,130.099,0.1019,29.02859999999999,9.0,2.0,2.0,4.0,3.0,50.0,0.0,0.0,0.0,0.0,74.6,51.42092815771127,3.788427600543414,158.34093004940027,High,True