ID,Name,InChI,InChIKey,SMILES,Solubility,SD,Ocurrences,Group,MolWt,MolLogP,MolMR,HeavyAtomCount,NumHAcceptors,NumHDonors,NumHeteroatoms,NumRotatableBonds,NumValenceElectrons,NumAromaticRings,NumSaturatedRings,NumAliphaticRings,RingCount,TPSA,LabuteASA,BalabanJ,BertzCT,bin,is_sol
A-1309,"sodium 1-amino-4-[(3-acetamidophenyl)amino]-9,10-dioxo-9,10-dihydroanthracene-2-sulfonate","InChI=1S/C22H17N3O6S.Na/c1-11(26)24-12-5-4-6-13(9-12)25-16-10-17(32(29,30)31)20(23)19-18(16)21(27)14-7-2-3-8-15(14)22(19)28;/h2-10,25H,23H2,1H3,(H,24,26)(H,29,30,31);/q;+1/p-1",MIBVDSFVCOIWCC-UHFFFAOYSA-M,[Na+].CC(=O)Nc1cccc(Nc2cc(c(N)c3C(=O)c4ccccc4C(=O)c23)[S]([O-])(=O)=O)c1,-4.3079108614,0.0548386730999999,2,G3,473.4420000000002,-0.3457000000000001,116.153,33.0,8.0,3.0,11.0,4.0,162.0,3.0,0.0,1.0,4.0,158.48999999999998,210.96574583279497,3.0624959939637974e-06,1436.0388499504463,Medium,False
A-1312,"3,7,11-trimethyldodeca-1,6,10-trien-3-ol,mixed isomers","InChI=1S/C15H26O/c1-6-15(5,16)12-8-11-14(4)10-7-9-13(2)3/h6,9,11,16H,1,7-8,10,12H2,2-5H3/b14-11+",FQTLCLSUCSAZDY-SDNWHVSQSA-N,CC(C)=CCC\C(C)=C\CCC(C)(O)C=C,-3.9853522661,0.1062543616499998,2,G3,222.372,4.3963000000000045,72.47680000000004,16.0,1.0,1.0,1.0,7.0,92.0,0.0,0.0,0.0,0.0,20.23,100.5738652850253,3.877113806700416,265.1595387832714,Medium,False
A-1317,benzyltriethylazanium chloride,"InChI=1S/C13H22N.ClH/c1-4-14(5-2,6-3)12-13-10-8-7-9-11-13;/h7-11H,4-6,12H2,1-3H3;1H/q+1;/p-1",HTZCNXWZYVXIMZ-UHFFFAOYSA-M,[Cl-].CC[N+](CC)(CC)Cc1ccccc1,-0.0072656636,0.22454626555,2,G3,227.779,0.0671000000000014,62.02940000000005,15.0,0.0,0.0,2.0,5.0,86.0,1.0,0.0,0.0,1.0,0.0,100.10889632962136,1.959999277600274e-06,246.23361737284745,High,True
A-1325,2-(2-butoxyethoxy)ethyl 2-methylprop-2-enoate,"InChI=1S/C12H22O4/c1-4-5-6-14-7-8-15-9-10-16-12(13)11(2)3/h2,4-10H2,1,3H3",QGTBRAFPWNISIJ-UHFFFAOYSA-N,CCCCOCCOCCOC(=O)C(C)=C,-2.0159485066,0.03094349545,2,G3,230.30399999999997,1.939,62.319000000000045,16.0,4.0,0.0,4.0,10.0,94.0,0.0,0.0,0.0,0.0,44.760000000000005,97.5661690425724,3.096935057347562,201.1954412113872,High,True
A-1333,4-methoxyaniline,"InChI=1S/C7H9NO/c1-9-7-4-2-6(8)3-5-7/h2-5H,8H2,1H3",BHAAPTBBJKJZER-UHFFFAOYSA-N,COc1ccc(N)cc1,-0.7480293677,0.01010169305,2,G3,123.155,1.2774,37.4064,9.0,2.0,1.0,2.0,1.0,48.0,1.0,0.0,0.0,1.0,35.25,54.24978116041317,2.881555877646136,180.61256853719752,High,True
A-1334,pentan-1-ol,"InChI=1S/C5H12O/c1-2-3-4-5-6/h6H,2-5H2,1H3",AMQJEAYHLZJPGS-UHFFFAOYSA-N,CCCCCO,-0.6027996358,0.01010169305,2,G3,88.14999999999999,1.1689,26.61079999999999,6.0,1.0,1.0,1.0,3.0,38.0,0.0,0.0,0.0,0.0,20.23,38.99325323761199,2.3390923149762908,15.900134529890124,High,True
A-1336,prop-2-en-1-yl 2-methylprop-2-enoate,"InChI=1S/C7H10O2/c1-4-5-9-7(8)6(2)3/h4H,1-2,5H2,3H3",FBCQUCJYYPMKRO-UHFFFAOYSA-N,CC(=C)C(=O)OCC=C,-1.7584817871,0.0080434099499999,2,G3,126.155,1.2917,35.97,9.0,2.0,0.0,2.0,3.0,50.0,0.0,0.0,0.0,0.0,26.3,54.824764979391325,3.5084051218843637,135.85157716108912,High,True
A-1346,"1,3-dichloroprop-1-ene","InChI=1S/C3H4Cl2/c4-2-1-3-5/h1-2H,3H2/b2-1-",UOORRWUZONOOLO-UPHRSURJSA-N,ClC\C=C/Cl,-1.706753006,0.1737949529427943,4,G5,110.971,1.9777,25.712999999999997,5.0,0.0,0.0,2.0,1.0,30.0,0.0,0.0,0.0,0.0,0.0,41.386064678201855,2.622415807990217,31.87430298092722,High,True
A-1354,triethoxy(2-methylpropyl)silane,"InChI=1S/C10H24O3Si/c1-6-11-14(12-7-2,13-8-3)9-10(4)5/h10H,6-9H2,1-5H3",ALVYUZIFSCKIFP-UHFFFAOYSA-N,CCO[Si](CC(C)C)(OCC)OCC,-3.016846171,0.1959187048499999,2,G3,220.38499999999996,2.690800000000001,60.27700000000005,14.0,3.0,0.0,4.0,8.0,86.0,0.0,0.0,0.0,0.0,27.69,89.11533857802152,4.368125379625989,122.30925044911548,High,True
A-1361,dithioxomethane,InChI=1S/CS2/c2-1-3,QGJOPFRUJISHPQ-UHFFFAOYSA-N,S=C=S,-1.5594220963,0.1305019100596892,5,G5,76.14500000000001,1.0181,20.189,3.0,2.0,0.0,2.0,0.0,16.0,0.0,0.0,0.0,0.0,0.0,29.456811522239303,3.2659863237109046,23.774437510817343,High,True
A-1362,methyl benzoate,"InChI=1S/C8H8O2/c1-10-8(9)7-5-3-2-4-6-7/h2-6H,1H3",QPJVMBTYPHYUOC-UHFFFAOYSA-N,COC(=O)c1ccccc1,-1.8117983509,0.01910082455,2,G3,136.14999999999998,1.4732,37.781500000000015,10.0,2.0,0.0,2.0,1.0,52.0,1.0,0.0,0.0,1.0,26.3,59.43635467784082,2.8526279288191434,215.9590174505521,High,True
A-1367,"1-methyl 1,2,2,6,6-pentamethylpiperidin-4-yl decanedioate bis(1,2,2,6,6-pentamethylpiperidin-4-yl) decanedioate","InChI=1S/C30H56N2O4.C21H39NO4/c1-27(2)19-23(20-28(3,4)31(27)9)35-25(33)17-15-13-11-12-14-16-18-26(34)36-24-21-29(5,6)32(10)30(7,8)22-24;1-20(2)15-17(16-21(3,4)22(20)5)26-19(24)14-12-10-8-7-9-11-13-18(23)25-6/h23-24H,11-22H2,1-10H3;17H,7-16H2,1-6H3",YHEPZZFDBQOSSN-UHFFFAOYSA-N,COC(=O)CCCCCCCCC(=O)OC1CC(C)(C)N(C)C(C)(C)C1.CN2C(C)(C)CC(CC2(C)C)OC(=O)CCCCCCCCC(=O)OC3CC(C)(C)N(C)C(C)(C)C3,-4.6112212345,0.07088890205,2,G3,878.3339999999994,10.971199999999994,250.99299999999872,62.0,11.0,0.0,11.0,21.0,362.0,0.0,3.0,3.0,3.0,114.92000000000002,379.35446476941394,4.505127789894729e-07,1288.8030526746238,Low,False
A-1370,2-[4-(2-methylpropyl)phenyl]propanoic acid,"InChI=1S/C13H18O2/c1-9(2)8-11-4-6-12(7-5-11)10(3)13(14)15/h4-7,9-10H,8H2,1-3H3,(H,14,15)",HEFNNWSXXWATRW-UHFFFAOYSA-N,CC(C)Cc1ccc(cc1)C(C)C(O)=O,-3.992248354700001,0.3177508636342036,4,G5,206.285,3.073200000000001,61.03480000000004,15.0,1.0,1.0,2.0,4.0,82.0,1.0,0.0,0.0,1.0,37.3,90.941753772513,2.7590371332701524,324.89411900215663,Medium,False
A-1376,"N-ethyl-N'-isopropyl-6-(methylsulfanyl)-1,3,5-triazine-2,4-diamine","InChI=1S/C9H17N5S/c1-5-10-7-12-8(11-6(2)3)14-9(13-7)15-4/h6H,5H2,1-4H3,(H2,10,11,12,13,14)",RQVYBGPQFYCBGX-UHFFFAOYSA-N,CCNc1nc(NC(C)C)nc(SC)n1,-3.0470399572000004,0.016534655388147,3,G5,227.337,1.8456,64.53040000000003,15.0,6.0,2.0,6.0,5.0,84.0,1.0,0.0,0.0,1.0,62.73,94.50283414129746,2.89174703245098,315.37105540415854,High,True
A-1377,1-(3-methoxyphenyl)ethan-1-one,"InChI=1S/C9H10O2/c1-7(10)8-4-3-5-9(6-8)11-2/h3-6H,1-2H3",BAYUSCHCCGXLAY-UHFFFAOYSA-N,COc1cccc(c1)C(C)=O,-1.8691073865,0.0721451988000001,2,G3,150.17699999999996,1.8978,42.99850000000002,11.0,2.0,0.0,2.0,2.0,58.0,1.0,0.0,0.0,1.0,26.3,65.80129679223744,3.0058892189147386,266.0201725709103,High,True
A-1382,cyanuric acid,"InChI=1S/C3H3N3O3/c7-1-4-2(8)6-3(9)5-1/h(H3,4,5,6,7,8,9)",ZFSLODLOARCGLH-UHFFFAOYSA-N,O=C1NC(=O)NC(=O)N1,-1.8076460763,0.2235177130121173,3,G5,129.075,-2.2485000000000004,28.3041,9.0,3.0,3.0,6.0,0.0,48.0,1.0,0.0,0.0,1.0,98.57999999999998,47.57491336246779,3.7180092596903305,276.8037297913861,High,True
A-1399,"2,2-bis({[(2-methylprop-2-enoyl)oxy]methyl})butyl 2-methylprop-2-enoate","InChI=1S/C18H26O6/c1-8-18(9-22-15(19)12(2)3,10-23-16(20)13(4)5)11-24-17(21)14(6)7/h2,4,6,8-11H2,1,3,5,7H3",OKKRPWIIYQTPQF-UHFFFAOYSA-N,CCC(COC(=O)C(C)=C)(COC(=O)C(C)=C)COC(=O)C(C)=C,-4.2262342969,0.0946328515499996,2,G3,338.40000000000003,2.740700000000001,90.04300000000003,24.0,6.0,0.0,6.0,10.0,134.0,0.0,0.0,0.0,0.0,78.9,142.6996598646711,5.106512542083464,469.6340396756941,Medium,False
A-1404,"3,7,7-trimethylbicyclo[4.1.0]hept-3-ene","InChI=1S/C10H16/c1-7-4-5-8-9(6-7)10(8,2)3/h4,8-9H,5-6H2,1-3H3",BQOFWKZOCNGFEC-UHFFFAOYSA-N,CC1=CCC2C(C1)C2(C)C,-4.6704052705,0.3875207904272368,3,G5,136.238,2.9987000000000013,43.75200000000002,10.0,0.0,0.0,0.0,0.0,56.0,0.0,1.0,2.0,2.0,0.0,63.322464718156304,2.1301442252099365,186.21499122004107,Low,False
A-1410,2-(dimethylamino)-2-[(4-methylphenyl)methyl]-1-[4-(morpholin-4-yl)phenyl]butan-1-one,"InChI=1S/C24H32N2O2/c1-5-24(25(3)4,18-20-8-6-19(2)7-9-20)23(27)21-10-12-22(13-11-21)26-14-16-28-17-15-26/h6-13H,5,14-18H2,1-4H3",PUBNJSZGANKUGX-UHFFFAOYSA-N,CCC(Cc1ccc(C)cc1)(N(C)C)C(=O)c2ccc(cc2)N3CCOCC3,-5.1332331523,0.1005190628497078,3,G5,380.5320000000002,3.9674200000000033,115.39650000000006,28.0,4.0,0.0,4.0,7.0,150.0,2.0,1.0,1.0,3.0,32.78,168.65670621474848,1.848556021568384,777.2573768650559,Low,False
A-1415,"1,3,5-triazinane-2,4,6-trione; 1,3,5-triazine-2,4,6-triamine","InChI=1S/C3H6N6.C3H3N3O3/c4-1-7-2(5)9-3(6)8-1;7-1-4-2(8)6-3(9)5-1/h(H6,4,5,6,7,8,9);(H3,4,5,6,7,8,9)",ZQKXQUJXLSSJCH-UHFFFAOYSA-N,Nc1nc(N)nc(N)n1.O=C2NC(=O)NC(=O)N2,-4.9755135023,0.2912932115216592,3,G5,255.19800000000004,-3.630300000000001,61.36829999999996,18.0,9.0,6.0,12.0,0.0,96.0,2.0,0.0,0.0,2.0,215.30999999999997,97.31645475593874,1.7999999759722224e-07,569.2044590572069,Low,False
A-1421,Molybdenum 2-ethylhexanoate,"InChI=1S/C8H16O2.Mo/c1-3-5-6-7(4-2)8(9)10;/h7H,3-6H2,1-2H3,(H,9,10);/p-1",VXIWJTFRRIZCQJ-UHFFFAOYSA-M,[Mo].CCCCC(CC)C([O-])=O,-3.4351686053,0.4131116101000003,2,G3,239.146,0.9502,38.313,11.0,2.0,0.0,3.0,5.0,66.0,0.0,0.0,0.0,0.0,40.13,82.63768977262689,0.0,104.26518047667868,High,True
A-1432,"3,7,11-trimethyldodec-1-yn-3-ol","InChI=1S/C15H28O/c1-6-15(5,16)12-8-11-14(4)10-7-9-13(2)3/h1,13-14,16H,7-12H2,2-5H3",OWRXWSVBJIIORE-UHFFFAOYSA-N,CC(C)CCCC(C)CCCC(C)(O)C#C,-4.953059618999999,0.1593793813000004,2,G3,224.388,4.003300000000003,71.16080000000005,16.0,1.0,1.0,1.0,8.0,94.0,0.0,0.0,0.0,0.0,20.23,101.64189977343734,3.51698182519572,209.96506609616085,Low,False
A-1444,"N-phenylaniline; 2,4,4-trimethylpent-1-ene","InChI=1S/C12H11N.C8H16/c1-3-7-11(8-4-1)13-12-9-5-2-6-10-12;1-7(2)6-8(3,4)5/h1-10,13H;1,6H2,2-5H3",NRBLRTXFXBXILY-UHFFFAOYSA-N,CC(=C)CC(C)(C)C.N(c1ccccc1)c2ccccc2,-5.0876626154,0.0788039267,2,G3,281.44300000000004,6.428900000000006,95.05270000000006,21.0,1.0,1.0,1.0,3.0,112.0,2.0,0.0,0.0,2.0,12.03,129.27412454568693,2.402884538194669e-07,483.2698019796367,Low,False
A-1455,"1,3,3-trimethyl-2-oxabicyclo[2.2.2]octane; 1,7,7-trimethylbicyclo[2.2.1]heptan-2-one; 2,2-dimethyl-3-methylidenebicyclo[2.2.1]heptane; 2,6,6-trimethylbicyclo[3.1.1]hept-2-ene","InChI=1S/C10H18O.C10H16O.2C10H16/c1-9(2)8-4-6-10(3,11-9)7-5-8;1-9(2)7-4-5-10(9,3)8(11)6-7;1-7-8-4-5-9(6-8)10(7,2)3;1-7-4-5-8-6-9(7)10(8,2)3/h8H,4-7H2,1-3H3;7H,4-6H2,1-3H3;8-9H,1,4-6H2,2-3H3;4,8-9H,5-6H2,1-3H3",SMPQTZLALIOWBF-UHFFFAOYSA-N,CC1=CCC2CC1C2(C)C.CC3(C)OC4(C)CCC3CC4.CC5(C)C6CCC(C6)C5=C.CC7(C)C8CCC7(C)C(=O)C8,-5.4383706051,0.0149081145499998,2,G3,578.9660000000003,11.14319999999999,177.2669999999995,42.0,2.0,0.0,2.0,0.0,238.0,0.0,7.0,8.0,8.0,26.3,259.83869898683326,1.1206317135347558e-07,1089.917488736728,Low,False
A-1468,2-methyldodecan-1-ol,"InChI=1S/C13H28O/c1-13(2)11-9-7-5-3-4-6-8-10-12-14/h13-14H,3-12H2,1-2H3",XUJLWPFSUCHPQL-UHFFFAOYSA-N,CC(C)CCCCCCCCCCO,-5.0007940326,0.3139804077348882,3,G5,200.366,4.145600000000004,63.47680000000006,14.0,1.0,1.0,1.0,10.0,86.0,0.0,0.0,0.0,0.0,20.23,89.9127901527849,2.8519171767291915,99.40868524464068,Low,False
A-1475,"octadecane-1,12-diol","InChI=1S/C18H38O2/c1-2-3-4-12-15-18(20)16-13-10-8-6-5-7-9-11-14-17-19/h18-20H,2-17H2,1H3",KHLCTMQBMINUNT-UHFFFAOYSA-N,CCCCCCC(O)CCCCCCCCCCCO,-5.1560946306,0.1505149978499997,2,G3,286.4999999999999,5.211000000000006,88.02160000000008,20.0,2.0,2.0,2.0,16.0,122.0,0.0,0.0,0.0,0.0,40.46,126.53173447696396,3.071711360094435,170.80115738264186,Low,False
A-1478,potassium hexadecyl hydrogen phosphate,"InChI=1S/C16H35O4P.K/c1-2-3-4-5-6-7-8-9-10-11-12-13-14-15-16-20-21(17,18)19;/h2-16H2,1H3,(H2,17,18,19);/q;+1/p-1",RMGVATURDVPNOZ-UHFFFAOYSA-M,[K+].CCCCCCCCCCCCCCCCO[P](O)([O-])=O,-3.2602593536,0.0148353353499999,2,G3,360.516,1.9489999999999983,86.08930000000007,22.0,3.0,1.0,6.0,16.0,128.0,0.0,0.0,0.0,0.0,69.59,179.38757084751526,0.0,258.5303609533574,High,True
A-1483,chromium(3+) ion hydrogen 3-[(2-ethylhexyl)oxy]propan-1-amine (Z)-2-[2-(5-nitro-2-oxido-3-sulfonatophenyl)hydrazin-1-ylidene]-3-oxo-N-phenylbutcarboximidate hydroxide,"InChI=1S/C16H14N4O8S.C11H25NO.Cr.H2O/c1-9(21)14(16(23)17-10-5-3-2-4-6-10)19-18-12-7-11(20(24)25)8-13(15(12)22)29(26,27)28;1-3-5-7-11(4-2)10-13-9-6-8-12;;/h2-8H,1H3,(H4,17,18,19,21,22,23,26,27,28);11H,3-10,12H2,1-2H3;;1H2/q;;+3;/p-3",OBGJRNHPDJSGBR-UHFFFAOYSA-K,[OH-].[Cr+3].CCCCC(CC)COCCCN.CC(=O)\C(=N/Nc1cc(cc(c1[O-])[S]([O-])(=O)=O)[N+]([O-])=O)C(=O)[N-]c2ccccc2.[H+],-3.5425873869,0.0646903248990327,4,G5,676.6890000000002,3.6628000000000016,157.55649999999972,44.0,13.0,2.0,17.0,16.0,243.0,2.0,0.0,0.0,2.0,261.28,268.62503346959073,-9.449999347550838e-07,1334.7409527386972,High,True
A-1485,hexafluoroprop-1-ene,"InChI=1S/C3F6/c4-1(2(5)6)3(7,8)9",HCDGVLDPFQMKDK-UHFFFAOYSA-N,FC(F)=C(F)C(F)(F)F,-2.8887982833,0.0504960657537499,3,G5,150.021,2.6263,16.405,9.0,0.0,0.0,6.0,0.0,54.0,0.0,0.0,0.0,0.0,0.0,45.77274464199592,4.399515870465618,125.72862410467503,High,True
A-1495,"1-chloro-1,1-difluoroethane","InChI=1S/C2H3ClF2/c1-2(3,4)5/h1H3",BHNZEZWIUMJCGF-UHFFFAOYSA-N,CC(F)(F)Cl,-1.7233908536000002,0.0663127826499998,2,G3,100.495,1.8379,16.474,5.0,0.0,0.0,3.0,0.0,32.0,0.0,0.0,0.0,0.0,0.0,33.7385301749603,3.0237157840738176,23.11941547876375,High,True
A-1497,difluoromethane,InChI=1S/CH2F2/c2-1-3/h1H2,RWRIWBAIICGTTQ-UHFFFAOYSA-N,FCF,-1.4374417919999998,0.1944147633123403,3,G5,52.023,0.8829,7.083,3.0,0.0,0.0,2.0,0.0,20.0,0.0,0.0,0.0,0.0,0.0,17.07032183368202,1.6329931618554523,2.754887502163468,High,True
A-1499,"magnesium(2+) ion bis(2,3-dinonylnaphthalene-1-sulfonate)","InChI=1S/2C28H44O3S.Mg/c2*1-3-5-7-9-11-13-15-19-24-23-25-20-17-18-22-27(25)28(32(29,30)31)26(24)21-16-14-12-10-8-6-4-2;/h2*17-18,20,22-23H,3-16,19,21H2,1-2H3,(H,29,30,31);/q;;+2/p-2",QGEKBXUETMOETP-UHFFFAOYSA-L,[Mg++].CCCCCCCCCc1cc2ccccc2c(c1CCCCCCCCC)[S]([O-])(=O)=O.CCCCCCCCCc3cc4ccccc4c(c3CCCCCCCCC)[S]([O-])(=O)=O,-4.6744729174,0.0227917385,2,G3,943.7369999999994,16.279399999999963,276.3643999999994,65.0,6.0,0.0,9.0,34.0,360.0,4.0,0.0,0.0,4.0,114.39999999999998,413.5227414890158,4.3999997584377276e-07,1963.261094451492,Low,False
A-1508,"benzene-1,4-dicarbonyl dichloride",InChI=1S/C8H4Cl2O2/c9-7(11)5-1-2-6(4-3-5)8(10)12/h1-4H,LXEJRKJRKIFVNY-UHFFFAOYSA-N,ClC(=O)c1ccc(cc1)C(Cl)=O,-4.0287937791,0.0513311709500001,2,G3,203.024,2.4446000000000003,46.80900000000001,12.0,2.0,0.0,4.0,2.0,62.0,1.0,0.0,0.0,1.0,34.14,79.09086400214105,3.0061498337295465,283.3346746591642,Medium,False
A-1519,calcium dimagnesium(2+) ion tetrahydroxide oxidandiide,"InChI=1S/C19H26O3/c1-18-7-5-12(20)9-11(18)3-4-13-14(18)6-8-19(2)16(22)10-15(21)17(13)19/h9,13-15,17,21H,3-8,10H2,1-2H3/t13-,14+,15?,17-,18+,19-/m1/s1",MYKMKUGZFQKMOZ-HYNIEHHYSA-N,C[C@]12CCC(=O)C=C1CC[C@@H]3[C@@H]2CC[C@@]4(C)[C@H]3C(O)CC4=O,-2.2130969417,0.3636259968499998,2,G3,302.41400000000004,3.058200000000001,83.10680000000005,22.0,3.0,1.0,3.0,0.0,120.0,0.0,3.0,4.0,4.0,54.37,131.71255939295088,1.726554158978616,577.2293702335213,High,True
A-1532,1-bromo-3-chloropropane,InChI=1S/C3H6BrCl/c4-2-1-3-5/h1-3H2,MFESCIUQSIBMSM-UHFFFAOYSA-N,ClCCCBr,-1.9401514115,0.4510267627788163,3,G5,157.438,2.0102,29.130999999999997,5.0,0.0,0.0,2.0,2.0,32.0,0.0,0.0,0.0,0.0,0.0,45.6399490891458,2.19060968716425,14.364527976600282,High,True
A-1533,"2,2,2-trichloroethane-1,1-diol","InChI=1S/C2H3Cl3O2/c3-2(4,5)1(6)7/h1,6-7H",RNFNDJAIBTYOQL-UHFFFAOYSA-N,OC(O)C(Cl)(Cl)Cl,1.0371672978,0.4751856403021686,6,G5,165.403,0.6672999999999998,28.5156,7.0,2.0,2.0,5.0,0.0,44.0,0.0,0.0,0.0,0.0,40.46,55.602459327263205,3.541196965079901,56.44547197387445,High,True
A-1534,"disodium (5E)-5-[2-(2-methoxy-5-methyl-4-sulfonatophenyl)hydrazin-1-ylidene]-6-oxo-5,6-dihydronaphthalene-2-sulfonate","InChI=1S/C18H16N2O8S2.2Na/c1-10-7-14(16(28-2)9-17(10)30(25,26)27)19-20-18-13-5-4-12(29(22,23)24)8-11(13)3-6-15(18)21;;/h3-9,19H,1-2H3,(H,22,23,24)(H,25,26,27);;/q;2*+1/p-2/b20-18+;;",POXPUHKJGLHZEM-VIPPSAFOSA-L,[Na+].[Na+].COc1cc(c(C)cc1N\N=C2\C(=O)C=Cc3cc(ccc23)[S]([O-])(=O)=O)[S]([O-])(=O)=O,-0.4405855136,0.04357508785,2,G3,496.4300000000002,-4.768079999999992,104.3001,32.0,10.0,1.0,14.0,5.0,158.0,2.0,0.0,1.0,3.0,165.08999999999995,228.7571751109861,2.559998350601092e-06,1336.9886313690663,High,True
A-1538,5-hydroxyisophthalic acid,"InChI=1S/C8H6O5/c9-6-2-4(7(10)11)1-5(3-6)8(12)13/h1-3,9H,(H,10,11)(H,12,13)",QNVNLUSHGRBCLO-UHFFFAOYSA-N,OC(=O)c1cc(O)cc(c1)C(O)=O,-2.005111367,0.2384443164999998,2,G3,182.131,0.7886,42.025400000000005,13.0,3.0,3.0,5.0,2.0,68.0,1.0,0.0,0.0,1.0,94.83,72.86703280496575,3.263407613099897,336.54717755428595,High,True
A-1539,"disodium 2,2'-ethene-1,2-diylbis{5-[(4-anilino-6-morpholin-4-yl-1,3,5-triazin-2-yl)amino]benzenesulfonate}","InChI=1S/C40H40N12O8S2.2Na/c53-61(54,55)33-25-31(43-37-45-35(41-29-7-3-1-4-8-29)47-39(49-37)51-17-21-59-22-18-51)15-13-27(33)11-12-28-14-16-32(26-34(28)62(56,57)58)44-38-46-36(42-30-9-5-2-6-10-30)48-40(50-38)52-19-23-60-24-20-52;;/h1-16,25-26H,17-24H2,(H,53,54,55)(H,56,57,58)(H2,41,43,45,47,49)(H2,42,44,46,48,50);;/q;2*+1/p-2/b12-11+;;",VUJGKADZTYCLIL-YHPRVSEPSA-L,[Na+].[Na+].[O-][S](=O)(=O)c1cc(Nc2nc(Nc3ccccc3)nc(n2)N4CCOCC4)ccc1/C=C/c5ccc(Nc6nc(Nc7ccccc7)nc(n6)N8CCOCC8)cc5[S]([O-])(=O)=O,-2.710838239,0.0117405478999998,2,G3,924.9339999999996,-1.3091999999999886,229.4711999999996,64.0,20.0,4.0,24.0,14.0,320.0,6.0,2.0,2.0,8.0,264.8,413.01319563957713,3.4007054750541453e-06,2616.4738051662584,High,True
A-1542,cyclododecanol,"InChI=1S/C12H24O/c13-12-10-8-6-4-2-1-3-5-7-9-11-12/h12-13H,1-11H2",SFVWPXMPRCIVOK-UHFFFAOYSA-N,OC1CCCCCCCCCCC1,-3.9891177261,0.1627990935500001,2,G3,184.32299999999995,3.652000000000003,56.79380000000005,13.0,1.0,1.0,1.0,0.0,78.0,0.0,1.0,1.0,1.0,20.23,82.54201688485905,2.1079581635972864,99.69210414479322,Medium,False
A-1553,"tris(1,3-dichloropropan-2-yl) phosphate","InChI=1S/C9H15Cl6O4P/c10-1-7(2-11)17-20(16,18-8(3-12)4-13)19-9(5-14)6-15/h7-9H,1-6H2",ASLWPAWFJZFCKF-UHFFFAOYSA-N,ClCC(CCl)O[P](=O)(OC(CCl)CCl)OC(CCl)CCl,-4.3767049743,0.20629026745,2,G3,430.907,4.682900000000003,86.54550000000003,20.0,4.0,0.0,11.0,12.0,122.0,0.0,0.0,0.0,0.0,44.760000000000005,148.36863166728816,4.947205147936471,242.8173499961941,Medium,False
A-1554,"1,2,3-trichlorobenzene",InChI=1S/C6H3Cl3/c7-4-2-1-3-5(8)6(4)9/h1-3H,RELMFMZEBKVZJC-UHFFFAOYSA-N,Clc1cccc(Cl)c1Cl,-4.003482074,0.1164760529598173,5,G5,181.449,3.6468000000000007,41.47200000000001,9.0,0.0,0.0,3.0,0.0,48.0,1.0,0.0,0.0,1.0,0.0,68.34120180014197,3.2478347337367026,199.2929995478469,Medium,False
A-1562,4-methyl-1-(propan-2-yl)cyclohex-3-en-1-ol,"InChI=1S/C10H18O/c1-8(2)10(11)6-4-9(3)5-7-10/h4,8,11H,5-7H2,1-3H3",WRYLYDPHFGVWKC-UHFFFAOYSA-N,CC(C)C1(O)CCC(=CC1)C,-1.9409970697,0.3299873499,2,G3,154.25299999999996,2.5037000000000003,47.39580000000002,11.0,1.0,1.0,1.0,1.0,64.0,0.0,0.0,1.0,1.0,20.23,69.12252962388153,2.637067423359619,169.71159065163116,High,True
A-1564,"1,4-dimethoxy-2-nitrobenzene","InChI=1S/C8H9NO4/c1-12-6-3-4-8(13-2)7(5-6)9(10)11/h3-5H,1-2H3",UPTOWXNJLZJTGD-UHFFFAOYSA-N,COc1ccc(OC)c(c1)[N+]([O-])=O,-3.0173250803,0.0496874598500001,2,G3,183.163,1.612,46.200400000000016,13.0,4.0,0.0,5.0,3.0,70.0,1.0,0.0,0.0,1.0,61.6,75.04135352980374,3.175529228703851,323.9201072839529,High,True
A-1565,3-iodoprop-2-yn-1-yl N-butylcarbamate,"InChI=1S/C8H12INO2/c1-2-3-6-10-8(11)12-7-4-5-9/h2-3,6-7H2,1H3,(H,10,11)",WYVVKGNFXHOCQV-UHFFFAOYSA-N,CCCCNC(=O)OCC#CI,-3.2033373628,0.0142537994084229,3,G5,281.093,1.9086,56.054700000000025,12.0,2.0,1.0,4.0,4.0,68.0,0.0,0.0,0.0,0.0,38.33,86.3798388546674,3.2547207620095517,183.2322192588714,High,True
A-1570,"5-amino-6-methyl-2,3-dihydro-1H-1,3-benzodiazol-2-one","InChI=1S/C8H9N3O/c1-4-2-6-7(3-5(4)9)11-8(12)10-6/h2-3H,9H2,1H3,(H2,10,11,12)",ZCXIPVIGYBHUTQ-UHFFFAOYSA-N,Cc1cc2NC(=O)Nc2cc1N,-1.9771384819,0.12791662345,2,G3,163.18,0.74682,48.0688,12.0,2.0,3.0,4.0,0.0,62.0,2.0,0.0,0.0,2.0,74.67,68.40823096464607,2.915474885978318,438.4988967851898,High,True
A-1576,2-(tert-butylperoxy)-2-methylpropane,"InChI=1S/C8H18O2/c1-7(2,3)9-10-8(4,5)6/h1-6H3",LSXWFXONGKSEMY-UHFFFAOYSA-N,CC(C)(C)OOC(C)(C)C,-2.9320403696,0.1164798152000001,2,G3,146.23,2.531600000000001,41.67600000000001,10.0,2.0,0.0,2.0,1.0,62.0,0.0,0.0,0.0,0.0,18.46,63.45023160335785,3.563001750182873,80.80566875783265,High,True
A-1577,ethyl 3-phenylacrylate,"InChI=1S/C11H12O2/c1-2-13-11(12)9-8-10-6-4-3-5-7-10/h3-9H,2H2,1H3/b9-8+",KBEBGUQPQBELIU-CMDGGOBGSA-N,CCOC(=O)\C=C\c1ccccc1,-3.0130467638,0.0087233818999998,2,G3,176.215,2.2629,52.10900000000003,13.0,2.0,0.0,2.0,3.0,68.0,1.0,0.0,0.0,1.0,26.3,77.8415779888464,2.538214333042918,288.21840549259923,High,True