ID,Name,InChI,InChIKey,SMILES,Solubility,SD,Ocurrences,Group,MolWt,MolLogP,MolMR,HeavyAtomCount,NumHAcceptors,NumHDonors,NumHeteroatoms,NumRotatableBonds,NumValenceElectrons,NumAromaticRings,NumSaturatedRings,NumAliphaticRings,RingCount,TPSA,LabuteASA,BalabanJ,BertzCT,bin,is_sol
C-870,"sulfisomidine;  2,6-dimethyl-4-sulfapyrimidine","InChI=1S/C12H14N4O2S/c1-8-7-12(15-9(2)14-8)16-19(17,18)11-5-3-10(13)4-6-11/h3-7H,13H2,1-2H3,(H,14,15,16)",YZMCKZRAOLZXAZ-UHFFFAOYSA-N,CC1=CC(=NC(=N1)C)N[S](=O)(=O)C2=CC=C(N)C=C2,-2.3,0.0356431698303552,3,G5,278.337,1.4764399999999998,73.16890000000002,19.0,5.0,2.0,7.0,3.0,100.0,2.0,0.0,0.0,2.0,97.97,111.30820628928308,2.330509006052534,675.9193645265303,High,True
C-885,"2,2',3,3',4,4'-hexachlorobiphenyl",InChI=1S/C12H4Cl6/c13-7-3-1-5(9(15)11(7)17)6-2-4-8(14)12(18)10(6)16/h1-4H,BTAGRXWGMYTPBY-UHFFFAOYSA-N,ClC1=C(Cl)C(=C(C=C1)C2=CC=C(Cl)C(=C2Cl)Cl)Cl,-8.78,0.4286853002689344,3,G5,360.882,7.274000000000001,81.938,18.0,0.0,0.0,6.0,1.0,94.0,2.0,0.0,0.0,2.0,0.0,134.308094686851,2.706551430164041,564.9500798683472,Low,False
C-900,"2,2',4,4',6,6'-hexachlorobiphenyl",InChI=1S/C12H4Cl6/c13-5-1-7(15)11(8(16)2-5)12-9(17)3-6(14)4-10(12)18/h1-4H,ICOAEPDGFWLUTI-UHFFFAOYSA-N,ClC1=CC(=C(C(=C1)Cl)C2=C(Cl)C=C(Cl)C=C2Cl)Cl,-8.71,0.1183499999999995,2,G3,360.88200000000006,7.274000000000001,81.93800000000002,18.0,0.0,0.0,6.0,1.0,94.0,2.0,0.0,0.0,2.0,0.0,134.30809468685104,2.7761581852522488,518.4500798683472,Low,False
C-939,3-(acetyloxymethyl)phenytoin,"InChI=1S/C18H16N2O4/c1-13(21)24-12-20-16(22)18(19-17(20)23,14-8-4-2-5-9-14)15-10-6-3-7-11-15/h2-11H,12H2,1H3,(H,19,23)",FBFCVJNZKBVVRP-UHFFFAOYSA-N,CC(=O)OCN1C(=O)NC(C1=O)(C2=CC=CC=C2)C3=CC=CC=C3,-4.47,0.2200000000000002,2,G3,324.33600000000007,2.0025999999999997,85.67470000000003,24.0,4.0,1.0,6.0,4.0,122.0,2.0,1.0,1.0,3.0,75.71000000000001,138.58012624186102,2.089194586602063,734.6204742966938,Medium,False
C-944,azinphos-methyl;  methyl-azinphos,"InChI=1S/C10H12N3O3PS2/c1-15-17(18,16-2)19-7-13-10(14)8-5-3-4-6-9(8)11-12-13/h3-6H,7H2,1-2H3",CJJOSEISRRTUQB-UHFFFAOYSA-N,CO[P](=S)(OC)SCN1N=NC2=CC=CC=C2C1=O,-4.04,0.0706999999999999,2,G3,317.33200000000005,1.9995,79.69200000000002,19.0,8.0,0.0,9.0,5.0,102.0,2.0,0.0,0.0,2.0,66.24000000000001,118.56728161329336,2.29629490763367,683.0193670634867,Medium,False
C-945,mebendazole,"InChI=1S/C16H13N3O3/c1-22-16(21)19-15-17-12-8-7-11(9-13(12)18-15)14(20)10-5-3-2-4-6-10/h2-9H,1H3,(H2,17,18,19,21)",OPXLLQIJSORQAM-UHFFFAOYSA-N,COC(=O)NC1=NC2=CC(=CC=C2[NH]1)C(=O)C3=CC=CC=C3,-3.88,0.1313999999999999,2,G3,295.298,2.972200000000001,81.99590000000002,22.0,4.0,2.0,6.0,3.0,110.0,3.0,0.0,0.0,3.0,84.07999999999998,125.68024821564931,1.9260874098713097,840.2231332611786,Medium,False
C-951,"2,2',3,4,4',5',6-heptachlorobiphenyl",InChI=1S/C12H3Cl7/c13-5-2-7(15)6(14)1-4(5)10-8(16)3-9(17)11(18)12(10)19/h1-3H,KQBFUDNJKCZEDQ-UHFFFAOYSA-N,ClC1=CC(=C(C=C1Cl)C2=C(Cl)C=C(Cl)C(=C2Cl)Cl)Cl,-7.92,0.0066000000000001,2,G3,395.327,7.9274,86.94800000000001,19.0,0.0,0.0,7.0,1.0,100.0,2.0,0.0,0.0,2.0,0.0,144.61136091373268,2.796160297162765,663.8579666719705,Low,False
C-959,3-(propanoyloxymethyl)phenytoin,"InChI=1S/C19H18N2O4/c1-2-16(22)25-13-21-17(23)19(20-18(21)24,14-9-5-3-6-10-14)15-11-7-4-8-12-15/h3-12H,2,13H2,1H3,(H,20,24)",FBQTWGHLMQUOQL-UHFFFAOYSA-N,CCC(=O)OCN1C(=O)NC(C1=O)(C2=CC=CC=C2)C3=CC=CC=C3,-4.91,0.08,2,G3,338.36300000000006,2.3927000000000005,90.29170000000003,25.0,4.0,1.0,6.0,5.0,128.0,2.0,1.0,1.0,3.0,75.71000000000001,144.94506835625762,2.034205495275545,750.0860960580177,Low,False
C-961,"2,2',3,4,5,5',6-heptachlorobiphenyl",InChI=1S/C12H3Cl7/c13-4-1-2-6(14)5(3-4)7-8(15)10(17)12(19)11(18)9(7)16/h1-3H,PYZHTHZEHQHHEN-UHFFFAOYSA-N,ClC1=CC=C(Cl)C(=C1)C2=C(Cl)C(=C(Cl)C(=C2Cl)Cl)Cl,-8.46,0.441898942695675,3,G5,395.327,7.9274,86.94799999999998,19.0,0.0,0.0,7.0,1.0,100.0,2.0,0.0,0.0,2.0,0.0,144.61136091373268,2.8656071971830146,634.6079666719705,Low,False
C-964,"7,12-dimethylbenz[a]anthracene","InChI=1S/C20H16/c1-13-16-8-5-6-9-17(16)14(2)20-18(13)12-11-15-7-3-4-10-19(15)20/h3-12H,1-2H3",ARSRBNBHOADGJU-UHFFFAOYSA-N,CC1=C2C=CC3=C(C=CC=C3)C2=C(C)C4=C1C=CC=C4,-6.78,0.1589347944563712,3,G5,256.348,5.763040000000004,88.43400000000004,20.0,0.0,0.0,0.0,0.0,96.0,4.0,0.0,0.0,4.0,0.0,118.2062809434958,2.3825782969541605,961.5588177778452,Low,False
C-976,chlorothiazide,"InChI=1S/C7H6ClN3O4S2/c8-4-1-5-7(2-6(4)16(9,12)13)17(14,15)11-3-10-5/h1-3H,(H,10,11)(H2,9,12,13)",JBMKAUGHUNFTOL-UHFFFAOYSA-N,N[S](=O)(=O)C1=CC2=C(C=C1Cl)N=CN[S]2(=O)=O,-2.92,0.0630000000000001,2,G3,295.72900000000004,-0.0608999999999999,61.2987,17.0,5.0,2.0,10.0,1.0,92.0,1.0,0.0,1.0,2.0,118.69,102.40040745855704,2.84659666427789,723.7308563894459,High,True
C-978,chlorprothixene (form ii),"InChI=1S/C18H18ClNS/c1-20(2)11-5-7-14-15-6-3-4-8-17(15)21-18-10-9-13(19)12-16(14)18/h3-4,6-10,12H,5,11H2,1-2H3/b14-7-",WSPOMRSOLSGNFJ-AUWJEWJLSA-N,CN(C)CC\C=C/1C2=C(SC3=C1C=C(Cl)C=C3)C=CC=C2,-5.87,0.4399999999999999,2,G3,315.869,5.188000000000005,92.26700000000004,21.0,2.0,0.0,3.0,3.0,108.0,2.0,0.0,1.0,3.0,3.24,135.16892574867745,2.062890975135638,691.3677237596133,Low,False
C-992,"2,2',3,3',4,4',5,5'-octachlorobiphenyl",InChI=1S/C12H2Cl8/c13-5-1-3(7(15)11(19)9(5)17)4-2-6(14)10(18)12(20)8(4)16/h1-2H,DTMRKGRREZAYAP-UHFFFAOYSA-N,ClC1=CC(=C(Cl)C(=C1Cl)Cl)C2=CC(=C(Cl)C(=C2Cl)Cl)Cl,-9.16,0.0193500000000002,2,G3,429.77199999999993,8.580799999999998,91.95799999999998,20.0,0.0,0.0,8.0,1.0,106.0,2.0,0.0,0.0,2.0,0.0,154.9146271406144,2.826348678606057,646.0791147319976,Low,False
C-999,methotrimeprazine;  levomepromazine,"InChI=1S/C19H24N2OS/c1-14(12-20(2)3)13-21-16-7-5-6-8-18(16)23-19-10-9-15(22-4)11-17(19)21/h5-11,14H,12-13H2,1-4H3",VRQVVMDWGGWHTJ-UHFFFAOYSA-N,COC1=CC2=C(SC3=C(C=CC=C3)N2CC(C)CN(C)C)C=C1,-4.37,0.0750000000000001,2,G3,328.4810000000001,4.495600000000004,98.28300000000004,23.0,4.0,0.0,4.0,5.0,122.0,2.0,0.0,1.0,3.0,15.71,142.79358356808686,1.9870942688955264,686.8198722645237,Medium,False
C-1000,"2,2',3,3',5,5',6,6'-octachlorobiphenyl",InChI=1S/C12H2Cl8/c13-3-1-4(14)10(18)7(9(3)17)8-11(19)5(15)2-6(16)12(8)20/h1-2H,JPOPEORRMSDUIP-UHFFFAOYSA-N,ClC1=C(Cl)C(=C(Cl)C(=C1)Cl)C2=C(Cl)C(=CC(=C2Cl)Cl)Cl,-9.38,0.1333631716612779,3,G5,429.7720000000001,8.580799999999998,91.95799999999998,20.0,0.0,0.0,8.0,1.0,106.0,2.0,0.0,0.0,2.0,0.0,154.9146271406144,2.960312444807486,593.5791147319975,Low,False
C-1002,xipamide,"InChI=1S/C15H15ClN2O4S/c1-8-4-3-5-9(2)14(8)18-15(20)10-6-13(23(17,21)22)11(16)7-12(10)19/h3-7,19H,1-2H3,(H,18,20)(H2,17,21,22)",MTZBBNMLMNBNJL-UHFFFAOYSA-N,CC1=C(NC(=O)C2=CC(=C(Cl)C=C2O)[S](N)(=O)=O)C(=CC=C1)C,-3.9,0.0566999999999999,2,G3,354.8150000000001,2.562140000000001,88.35920000000002,23.0,4.0,3.0,8.0,3.0,122.0,2.0,0.0,0.0,2.0,109.48999999999998,138.4928745209081,2.481292347581099,874.3401567967136,Medium,False
C-1012,alprazolam;  xanax,"InChI=1S/C17H13ClN4/c1-11-20-21-16-10-19-17(12-5-3-2-4-6-12)14-9-13(18)7-8-15(14)22(11)16/h2-9H,10H2,1H3",VREFGVBLTWBCJP-UHFFFAOYSA-N,CC1=NN=C2CN=C(C3=CC=CC=C3)C4=C(C=CC(=C4)Cl)[N]12,-3.6,0.0849999999999999,2,G3,308.772,3.580120000000002,86.89100000000003,22.0,4.0,0.0,5.0,1.0,108.0,3.0,0.0,1.0,4.0,43.07,132.66005687193478,2.013381569193476,880.929525395127,High,True
C-1013,perylene,InChI=1S/C20H12/c1-5-13-6-2-11-17-18-12-4-8-14-7-3-10-16(20(14)18)15(9-1)19(13)17/h1-12H,CSHWQDPOILHKBI-UHFFFAOYSA-N,C1=CC2=C3C(=C1)C=CC=C3C4=CC=CC5=CC=CC2=C45,-8.7,0.0499499999999999,2,G3,252.316,5.737200000000003,87.65200000000004,20.0,0.0,0.0,0.0,0.0,92.0,5.0,0.0,0.0,5.0,0.0,116.13708612657338,2.317610822177941,917.0049697160238,Low,False
C-1014,benzo[e]pyrene,InChI=1S/C20H12/c1-2-8-16-15(7-1)17-9-3-5-13-11-12-14-6-4-10-18(16)20(14)19(13)17/h1-12H,TXVHTIQJNYSSKO-UHFFFAOYSA-N,C1=CC2=C3C=CC=C4C=CC5=CC=CC(=C2C=C1)C5=C34,-7.66,0.0829065873270768,3,G5,252.316,5.737200000000003,87.65200000000004,20.0,0.0,0.0,0.0,0.0,92.0,5.0,0.0,0.0,5.0,0.0,116.13708612657337,2.329150586973285,998.0049697160237,Low,False
C-1021,"2,2',3,3',4,4',5,5',6-nonachlorobiphenyl",InChI=1S/C12HCl9/c13-3-1-2(5(14)9(18)6(3)15)4-7(16)10(19)12(21)11(20)8(4)17/h1H,JFIMDKGRGPNPRQ-UHFFFAOYSA-N,ClC1=C(Cl)C(=C(Cl)C(=C1)C2=C(Cl)C(=C(Cl)C(=C2Cl)Cl)Cl)Cl,-9.62,0.3244000000000007,2,G3,464.217,9.2342,96.96799999999998,21.0,0.0,0.0,9.0,1.0,112.0,2.0,0.0,0.0,2.0,0.0,165.21789336749603,2.9283441974146136,722.3640379903333,Low,False
C-1023,triphenyl phosphate;  tpp,"InChI=1S/C18H15O4P/c19-23(20-16-10-4-1-5-11-16,21-17-12-6-2-7-13-17)22-18-14-8-3-9-15-18/h1-15H",XZZNDPSIHUTMOC-UHFFFAOYSA-N,O=[P](OC1=CC=CC=C1)(OC2=CC=CC=C2)OC3=CC=CC=C3,-5.66,0.377078939272964,5,G5,326.288,5.331500000000003,88.81650000000003,23.0,4.0,0.0,5.0,6.0,116.0,3.0,0.0,0.0,3.0,44.760000000000005,134.43583789462076,1.868683541996186,667.7177523421716,Low,False
C-1038,rotenone,"InChI=1S/C23H22O6/c1-11(2)16-8-14-15(28-16)6-5-12-22(24)21-13-7-18(25-3)19(26-4)9-17(13)27-10-20(21)29-23(12)14/h5-7,9,16,20-21H,1,8,10H2,2-4H3",JUVIOZPCNVVQFO-UHFFFAOYSA-N,COC1=CC2=C(C=C1OC)C3C(CO2)OC4=C(C=CC5=C4CC(O5)C(C)=C)C3=O,-4.47,0.0249999999999999,2,G3,394.4230000000002,3.703300000000002,105.90450000000008,29.0,6.0,0.0,6.0,3.0,150.0,2.0,0.0,3.0,5.0,63.220000000000006,168.5250123387299,1.5816249271358416,1040.1489593987324,Medium,False
C-1045,trichlormethiazide with crystal form i,"InChI=1S/C8H8Cl3N3O4S2/c9-3-1-4-6(2-5(3)19(12,15)16)20(17,18)14-8(13-4)7(10)11/h1-2,7-8,13-14H,(H2,12,15,16)",LMJSLTNSBFUCMU-UHFFFAOYSA-N,N[S](=O)(=O)C1=C(Cl)C=C2NC(N[S](=O)(=O)C2=C1)C(Cl)Cl,-3.18,0.3499259477216413,3,G5,380.662,0.8210000000000002,76.05140000000002,20.0,5.0,3.0,12.0,2.0,112.0,1.0,0.0,1.0,2.0,118.36,130.02642172446494,2.674326651539072,763.4169308306105,High,True
C-1050,piroxicam,"InChI=1S/C15H13N3O4S/c1-18-13(15(20)17-12-8-4-5-9-16-12)14(19)10-6-2-3-7-11(10)23(18,21)22/h2-9,19H,1H3,(H,16,17,20)",QYSPLQLAKJAUJT-UHFFFAOYSA-N,CN1C(=C(O)C2=C(C=CC=C2)[S]1(=O)=O)C(=O)NC3=CC=CC=N3,-4.5,0.2614489540150342,3,G5,331.353,1.5810000000000002,83.80630000000004,23.0,5.0,2.0,8.0,2.0,118.0,2.0,0.0,1.0,3.0,99.6,132.49870717684675,2.0932817931934427,907.3290496863176,Medium,False
C-1065,flufenoxuron;  cascade,"InChI=1S/C21H11ClF6N2O3/c22-12-8-10(21(26,27)28)4-7-17(12)33-11-5-6-16(15(25)9-11)29-20(32)30-19(31)18-13(23)2-1-3-14(18)24/h1-9H,(H2,29,30,31,32)",RYLHNOVXKPXDIP-UHFFFAOYSA-N,FC1=C(NC(=O)NC(=O)C2=C(F)C=CC=C2F)C=CC(=C1)OC3=CC=C(C=C3Cl)C(F)(F)F,-8.09,0.2086500000000004,2,G3,488.7710000000001,6.530300000000003,105.7709,33.0,3.0,2.0,12.0,4.0,172.0,3.0,0.0,0.0,3.0,67.43,186.47321031606447,1.6833988950565026,1212.8572448093828,Low,False
C-1069,coronene,InChI=1S/C24H12/c1-2-14-5-6-16-9-11-18-12-10-17-8-7-15-4-3-13(1)19-20(14)22(16)24(18)23(17)21(15)19/h1-12H,VPUGDVKSAQVFFS-UHFFFAOYSA-N,C1=CC2=C3C4=C1C=CC5=C4C6=C(C=C5)C=CC7=C6C3=C(C=C2)C=C7,-8.83,0.25075,2,G3,300.36,6.919200000000003,105.03600000000004,24.0,0.0,0.0,0.0,0.0,108.0,7.0,0.0,0.0,7.0,0.0,137.45846495031495,2.1132609847421806,1140.946634757434,Low,False
C-1071,etoposide,"InChI=1S/C29H32O13/c1-11-36-9-20-27(40-11)24(31)25(32)29(41-20)42-26-14-7-17-16(38-10-39-17)6-13(14)21(22-15(26)8-37-28(22)33)12-4-18(34-2)23(30)19(5-12)35-3/h4-7,11,15,20-22,24-27,29-32H,8-10H2,1-3H3",VJJPUSNTGOMMGY-UHFFFAOYSA-N,COC1=CC(=CC(=C1O)OC)C2C3C(COC3=O)C(OC4OC5COC(C)OC5C(O)C4O)C6=C2C=C7OCOC7=C6,-3.47,0.0504999999999999,2,G3,588.5620000000001,1.3385999999999991,138.34539999999996,42.0,13.0,3.0,13.0,5.0,226.0,2.0,3.0,5.0,7.0,160.83,240.22948792485093,1.3182370054389008,1352.5325604550394,High,True
C-1074,malononitrile;  dicyanomethane,InChI=1S/C3H2N2/c4-2-1-3-5/h1H2,CUONGYYJJVDODC-UHFFFAOYSA-N,N#CCC#N,0.25,0.02695,2,G3,66.063,0.42366,15.843,5.0,2.0,0.0,2.0,0.0,24.0,0.0,0.0,0.0,0.0,47.58,30.254294619560195,2.857271683437132,70.04663563528787,High,True
C-1096,"1,4-benzoquinone;  quinone",InChI=1S/C6H4O2/c7-5-1-2-6(8)4-3-5/h1-4H,AZQWKYJCGOJGHM-UHFFFAOYSA-N,O=C1C=CC(=O)C=C1,-0.89,0.1832467977588937,3,G5,108.096,0.2505999999999999,28.29399999999999,8.0,2.0,0.0,2.0,0.0,40.0,0.0,0.0,1.0,1.0,34.14,46.50196858200238,2.8264765530384865,148.70521621571413,High,True
C-1102,carbromal;  adalin,"InChI=1S/C7H13BrN2O2/c1-3-7(8,4-2)5(11)10-6(9)12/h3-4H2,1-2H3,(H3,9,10,11,12)",OPNPQXLQERQBBV-UHFFFAOYSA-N,CCC(Br)(CC)C(=O)NC(N)=O,-2.68,0.0862499999999999,2,G3,237.097,1.1349999999999998,49.96610000000002,12.0,2.0,2.0,5.0,3.0,70.0,0.0,0.0,0.0,0.0,72.19,80.00924840055885,4.318367796433647,189.84539731095865,High,True
C-1103,3-chlorophenol,"InChI=1S/C6H5ClO/c7-5-2-1-3-6(8)4-5/h1-4,8H",HORNXRXVQWOLPJ-UHFFFAOYSA-N,OC1=CC(=CC=C1)Cl,-0.71,0.0079499999999999,2,G3,128.558,2.0456,33.1168,8.0,1.0,1.0,2.0,0.0,42.0,1.0,0.0,0.0,1.0,20.23,52.52890309857465,3.077660437970554,168.38833891467198,High,True
C-1129,"4-chloro-3,5-dimethylphenol;  4-chloro-3,5-xylenol","InChI=1S/C8H9ClO/c1-5-3-7(10)4-6(2)8(5)9/h3-4,10H,1-2H3",OSDLLIBGSJNGJE-UHFFFAOYSA-N,CC1=C(Cl)C(=CC(=C1)O)C,-2.67,0.1943541651416917,4,G5,156.612,2.662440000000001,42.59080000000002,10.0,1.0,1.0,2.0,0.0,54.0,1.0,0.0,0.0,1.0,20.23,65.25878732736787,3.310532874722407,232.4296583765569,High,True
C-1160,"xylylcarb;  3,4-xylyl methylcarbamate;  3,4-dimethylphenyl methylcarbamate","InChI=1S/C10H13NO2/c1-7-4-5-9(6-8(7)2)13-10(12)11-3/h4-6H,1-3H3,(H,11,12)",WCJYTPVNMWIZCG-UHFFFAOYSA-N,CNC(=O)OC1=CC(=C(C)C=C1)C,-2.49,0.1753,2,G3,179.219,2.02164,50.999700000000026,13.0,2.0,1.0,3.0,1.0,70.0,1.0,0.0,0.0,1.0,38.33,77.71610109024206,2.793568433647237,320.7008263350793,High,True
C-1179,fenobucarb,"InChI=1S/C12H17NO2/c1-4-9(2)10-7-5-6-8-11(10)15-12(14)13-3/h5-9H,4H2,1-3H3,(H,13,14)",DIRFUJHNVNOBMY-UHFFFAOYSA-N,CCC(C)C1=C(OC(=O)NC)C=CC=C1,-2.53,0.0164999999999999,2,G3,207.273,2.918300000000001,60.23170000000004,15.0,2.0,1.0,3.0,3.0,82.0,1.0,0.0,0.0,1.0,38.33,90.44598531903532,2.905749557549536,336.1489335759842,High,True
C-1189,1-(n-methyl)carbamoyl-5-fluorouracil,"InChI=1S/C6H6FN3O3/c1-8-5(12)10-2-3(7)4(11)9-6(10)13/h2H,1H3,(H,8,12)(H,9,11,13)",CDACFMJJRHUMNA-UHFFFAOYSA-N,CNC(=O)N1C=C(F)C(=O)NC1=O,-2.28,0.0999000000000001,2,G3,187.13,-1.1368,41.1344,13.0,4.0,2.0,7.0,0.0,70.0,1.0,0.0,0.0,1.0,83.96000000000001,71.0105186834441,3.405927556291114,447.17307819084994,High,True
C-1208,"simetryne; 2-methylthio-4,6-di(ethylamino)-1,3,5-triazine","InChI=1S/C8H15N5S/c1-4-9-6-11-7(10-5-2)13-8(12-6)14-3/h4-5H2,1-3H3,(H2,9,10,11,12,13)",MGLWZSOBALDPEK-UHFFFAOYSA-N,CCNC1=NC(=NC(=N1)NCC)SC,-2.73,0.0270999999999999,2,G3,213.31,1.4570999999999998,59.93540000000002,14.0,6.0,2.0,6.0,5.0,78.0,1.0,0.0,0.0,1.0,62.73,88.13789202690087,2.8800387311360462,266.8101696986081,High,True
C-1211,"2,2-bis(ethylsulfonyl)butane;  trional","InChI=1S/C8H18O4S2/c1-5-8(4,13(9,10)6-2)14(11,12)7-3/h5-7H2,1-4H3",LKACJLUUJRMGFK-UHFFFAOYSA-N,CCC(C)([S](=O)(=O)CC)[S](=O)(=O)CC,-1.91,0.1124999999999999,2,G3,242.36199999999997,0.9820000000000002,57.61760000000004,14.0,4.0,0.0,6.0,5.0,86.0,0.0,0.0,0.0,0.0,68.28,86.54464259217897,5.676923802661472,343.56434198006184,High,True
C-1216,"minoxidil;  2,4-diamino-6-piperidinopyrimidine 3-oxide","InChI=1S/C9H15N5O/c10-7-6-8(12-9(11)14(7)15)13-4-2-1-3-5-13/h6H,1-5,10H2,(H2,11,12)",ZFMITUMMTDLWHR-UHFFFAOYSA-N,NC1=[N+]([O-])C(=NC(=C1)N2CCCCC2)N,-1.94,0.02,2,G3,209.25299999999996,-0.1303000000000006,58.08580000000002,15.0,5.0,2.0,6.0,1.0,82.0,1.0,1.0,1.0,2.0,95.11,88.08743730234193,2.2740250949268805,338.5154908716173,High,True
C-1222,"prometon;  2,4-bis(isopropylamino)-6-methoxy-1,3,5-triazine","InChI=1S/C10H19N5O/c1-6(2)11-8-13-9(12-7(3)4)15-10(14-8)16-5/h6-7H,1-5H3,(H2,11,12,13,14,15)",ISEUFVQQFVOBCY-UHFFFAOYSA-N,COC1=NC(=NC(=N1)NC(C)C)NC(C)C,-2.56,0.04115,2,G3,225.296,1.5208,63.89640000000004,16.0,6.0,2.0,6.0,5.0,90.0,1.0,0.0,0.0,1.0,71.96000000000001,95.8582114598357,2.9110115648127404,311.73131572503644,High,True
C-1246,"dimethachlor;  2-chloro-n-(2,6-dimethylphenyl)-n-(2-methoxyethyl)acetamide","InChI=1S/C13H18ClNO2/c1-10-5-4-6-11(2)13(10)15(7-8-17-3)12(16)9-14/h4-6H,7-9H2,1-3H3",SCCDDNKJYDZXMM-UHFFFAOYSA-N,COCCN(C(=O)CCl)C1=C(C)C=CC=C1C,-2.09,0.0219499999999999,2,G3,255.745,2.5216400000000005,70.86500000000004,17.0,2.0,0.0,4.0,5.0,94.0,1.0,0.0,0.0,1.0,29.54,107.32416514690892,3.073310171652267,372.7558941318807,High,True
C-1292,flurochloridone,"InChI=1S/C12H10Cl2F3NO/c13-5-7-6-18(11(19)10(7)14)9-3-1-2-8(4-9)12(15,16)17/h1-4,7,10H,5-6H2",OQZCSNDVOWYALR-UHFFFAOYSA-N,FC(F)(F)C1=CC=CC(=C1)N2CC(CCl)C(Cl)C2=O,-4.05,0.0504999999999999,2,G3,312.118,3.514400000000002,67.64800000000002,19.0,1.0,0.0,7.0,2.0,104.0,1.0,1.0,1.0,2.0,20.31,117.63971908513656,2.3072800688729163,492.107994155014,Medium,False
C-1305,"morphine;  7,8-didehydro-4,5-epoxy-17-methylmorphinan-3,6-diol","InChI=1S/C17H19NO3/c1-18-7-6-17-10-3-5-13(20)16(17)21-15-12(19)4-2-9(14(15)17)8-11(10)18/h2-5,10-11,13,16,19-20H,6-8H2,1H3",BQJCRHHNABKAKU-UHFFFAOYSA-N,CN1CCC23C4OC5=C(O)C=CC(=C25)CC1C3C=CC4O,-3.15,0.0758653778449401,3,G5,285.343,1.1981,77.57660000000003,21.0,4.0,2.0,4.0,0.0,110.0,1.0,1.0,4.0,5.0,52.93000000000001,123.19468513566076,1.844525446747567,670.2442212037415,High,True
C-1318,metalaxyl;  apron   (racemate),"InChI=1S/C15H21NO4/c1-10-7-6-8-11(2)14(10)16(13(17)9-19-4)12(3)15(18)20-5/h6-8,12H,9H2,1-5H3",ZQEIXNIJLIKNTD-UHFFFAOYSA-N,COCC(=O)N(C(C)C(=O)OC)C1=C(C)C=CC=C1C,-1.6,0.03905,2,G3,279.336,1.84434,76.75600000000004,20.0,4.0,0.0,5.0,5.0,110.0,1.0,0.0,0.0,1.0,55.84,119.0258504783711,3.29996676443239,478.3969225140251,High,True
C-1340,fluroxypyr-meptyl;  fluroxypyr 1-methylheptyl ester,"InChI=1S/C15H21Cl2FN2O3/c1-3-4-5-6-7-9(2)23-10(21)8-22-15-12(17)13(19)11(16)14(18)20-15/h9H,3-8H2,1-2H3,(H2,19,20)",OLZQTUCTGLHFTQ-UHFFFAOYSA-N,CCCCCCC(C)OC(=O)COC1=NC(=C(Cl)C(=C1Cl)N)F,-6.43,0.0903499999999999,2,G3,367.248,4.390600000000004,88.43540000000004,23.0,5.0,1.0,8.0,9.0,130.0,1.0,0.0,0.0,1.0,74.44,144.80104335716936,2.445635253785128,543.9435409735228,Low,False
C-1379,dicapthon;  dicaptan,"InChI=1S/C8H9ClNO5PS/c1-13-16(17,14-2)15-8-4-3-6(10(11)12)5-7(8)9/h3-5H,1-2H3",OTKXWJHPGBRXCR-UHFFFAOYSA-N,CO[P](=S)(OC)OC1=C(Cl)C=C(C=C1)[N+]([O-])=O,-4.68,0.1867999999999998,2,G3,297.656,3.144300000000002,67.0374,17.0,6.0,0.0,9.0,5.0,94.0,1.0,0.0,0.0,1.0,70.83000000000001,107.83809308940528,3.01217730448783,474.98338445956347,Low,False
C-1399,desmedipham,"InChI=1S/C16H16N2O4/c1-2-21-15(19)18-13-9-6-10-14(11-13)22-16(20)17-12-7-4-3-5-8-12/h3-11H,2H2,1H3,(H,17,20)(H,18,19)",WZJZMXBKUWKXTQ-UHFFFAOYSA-N,CCOC(=O)NC1=CC(=CC=C1)OC(=O)NC2=CC=CC=C2,-4.52,0.0562500000000003,2,G3,300.314,3.8659000000000017,83.17540000000004,22.0,4.0,2.0,6.0,4.0,114.0,2.0,0.0,0.0,2.0,76.66,127.59812480946484,1.947468537976401,643.6038826699458,Medium,False
C-1407,"triazoxide;  7-chloro-3-(1h-imidazol-1-yl)-1,2,4-benzotriazine 1-oxide",InChI=1S/C10H6ClN5O/c11-7-1-2-8-9(5-7)16(17)14-10(13-8)15-4-3-12-6-15/h1-6H,IQGKIPDJXCAMSM-UHFFFAOYSA-N,[O-][N+]1=NC(=NC2=C1C=C(Cl)C=C2)[N]3C=CN=C3,-3.63,0.1162,2,G3,247.64500000000004,1.1022999999999998,60.63000000000002,17.0,5.0,0.0,7.0,1.0,84.0,3.0,0.0,0.0,3.0,70.53999999999999,100.69784922224758,2.2791496359258745,682.4790472414079,High,True
C-1409,"sulfamoxole;  2-sulfa-4,5-dimethyloxazole","InChI=1S/C11H13N3O3S/c1-7-8(2)17-11(13-7)14-18(15,16)10-5-3-9(12)4-6-10/h3-6H,12H2,1-2H3,(H,13,14)",CYFLXLSBHQBMFT-UHFFFAOYSA-N,CC1=C(C)N=C(N[S](=O)(=O)C2=CC=C(N)C=C2)O1,-2.22,0.1080701932387772,3,G5,267.31,1.67444,67.63990000000003,18.0,5.0,2.0,7.0,3.0,96.0,2.0,0.0,0.0,2.0,98.22,104.8828875724134,2.293759452727439,639.8419266315426,High,True
C-1430,fensulfothion-sulfone,"InChI=1S/C11H17O5PS2/c1-4-14-17(18,15-5-2)16-10-6-8-11(9-7-10)19(3,12)13/h6-9H,4-5H2,1-3H3",VTFZEBCYVXMEBB-UHFFFAOYSA-N,CCO[P](=S)(OCC)OC1=CC=C(C=C1)[S](C)(=O)=O,-3.58,0.47085,2,G3,324.36000000000007,2.766400000000001,77.71680000000003,19.0,6.0,0.0,8.0,7.0,108.0,1.0,0.0,0.0,1.0,61.830000000000005,118.60207586500022,2.897627486722987,542.9532064267405,High,True
C-1438,oxadiazon,"InChI=1S/C15H18Cl2N2O3/c1-8(2)21-12-7-11(9(16)6-10(12)17)19-14(20)22-13(18-19)15(3,4)5/h6-8H,1-5H3",CHNUNORXWHYHNE-UHFFFAOYSA-N,CC(C)OC1=C(Cl)C=C(Cl)C(=C1)N2N=C(OC2=O)C(C)(C)C,-5.54,0.0764999999999997,2,G3,345.22600000000017,4.217000000000003,86.58400000000003,22.0,5.0,0.0,7.0,3.0,120.0,2.0,0.0,0.0,2.0,57.26,138.33674219062115,2.576230937726532,742.2214387407038,Low,False