ID,Name,InChI,InChIKey,SMILES,Solubility,SD,Ocurrences,Group,MolWt,MolLogP,MolMR,HeavyAtomCount,NumHAcceptors,NumHDonors,NumHeteroatoms,NumRotatableBonds,NumValenceElectrons,NumAromaticRings,NumSaturatedRings,NumAliphaticRings,RingCount,TPSA,LabuteASA,BalabanJ,BertzCT,bin,is_sol
C-18,alpha-terpineol,"InChI=1S/C10H18O/c1-8-4-6-9(7-5-8)10(2,3)11/h4,9,11H,5-7H2,1-3H3",WUOACPNHFRMFPN-UHFFFAOYSA-N,CC1=CCC(CC1)C(C)(C)O,-1.91,0.0091999999999999,2,G3,154.253,2.5037000000000007,47.39580000000002,11.0,1.0,1.0,1.0,1.0,64.0,0.0,0.0,1.0,1.0,20.23,69.12252962388156,2.5385757360885064,162.20181564730422,High,True
C-30,d-glucose;  dextrose,"InChI=1S/C6H12O6/c7-1-2-3(8)4(9)5(10)6(11)12-2/h2-11H,1H2",WQZGKKKJIJFFOK-UHFFFAOYSA-N,OCC1OC(O)C(O)C(O)C1O,0.74,0.1015253262737924,4,G5,180.156,-3.2214000000000005,35.986,12.0,6.0,5.0,6.0,1.0,72.0,0.0,1.0,1.0,1.0,110.38,68.64284443677029,2.634408987061597,146.2188491003481,High,True
C-31,"1,3-diethyl-2-thiourea;  n,n'-diethylthiourea","InChI=1S/C5H12N2S/c1-3-6-5(8)7-4-2/h3-4H2,1-2H3,(H2,6,7,8)",FLVIGYVXZHLUHP-UHFFFAOYSA-N,CCNC(=S)NCC,-1.46,0.4809563618499999,2,G3,132.232,0.4903,39.95140000000001,8.0,1.0,2.0,3.0,2.0,48.0,0.0,0.0,0.0,0.0,24.06,55.65752409983694,3.0551722039096187,64.82892142331043,High,True
C-32,"2,4-hexadienoic acid;  sorbic  acid","InChI=1S/C6H8O2/c1-2-3-4-5-6(7)8/h2-5H,1H3,(H,7,8)/b3-2+,5-4+",WSWCOQWTEOXDQX-MQQKCMAXSA-N,C\C=C\C=C\C(O)=O,-1.77,0.0839362904618378,3,G5,112.128,1.2033,31.589799999999983,8.0,1.0,1.0,2.0,2.0,44.0,0.0,0.0,0.0,0.0,37.3,48.14051138768385,3.500112596554556,122.49022499567306,High,True
C-33,l-serine,"InChI=1S/C3H7NO3/c4-2(1-5)3(6)7/h2,5H,1,4H2,(H,6,7)",MTCFGRXMJLQNBG-UHFFFAOYSA-N,NC(CO)C(O)=O,-0.02,0.4212105919356122,4,G5,105.093,-1.6094000000000002,22.697,7.0,3.0,3.0,4.0,2.0,42.0,0.0,0.0,0.0,0.0,83.55000000000001,40.55901555807127,3.3434170589539605,72.58027134782354,High,True
C-43,hexachloroethane,"InChI=1S/C2Cl6/c3-1(4,5)2(6,7)8",VHHHONWQHHHLTI-UHFFFAOYSA-N,ClC(Cl)(Cl)C(Cl)(Cl)Cl,-3.94,0.338436171563003,3,G5,236.74,3.7268,40.580000000000005,8.0,0.0,0.0,6.0,0.0,50.0,0.0,0.0,0.0,0.0,0.0,76.92379050351619,4.020391543176799,61.50977500432693,Medium,False
C-48,succinic  acid;  butanedioic acid,"InChI=1S/C4H6O4/c5-3(6)1-2-4(7)8/h1-2H2,(H,5,6)(H,7,8)",KDYFGRWQOYBRFD-UHFFFAOYSA-N,OC(=O)CCC(O)=O,-0.17,0.0197619724611577,3,G5,118.088,-0.0641999999999998,24.505599999999998,8.0,2.0,2.0,4.0,3.0,46.0,0.0,0.0,0.0,0.0,74.6,45.74558907549893,3.1818458670936187,92.60593781761293,High,True
C-54,"adipic  acid; 1,6-hexanedioic acid","InChI=1S/C6H10O4/c7-5(8)3-1-2-4-6(9)10/h1-4H2,(H,7,8)(H,9,10)",WNLRTRBMVRJNCN-UHFFFAOYSA-N,OC(=O)CCCCC(O)=O,-0.82,0.1180919922671118,6,G5,146.14200000000002,0.7160000000000002,33.73959999999999,10.0,2.0,2.0,4.0,5.0,58.0,0.0,0.0,0.0,0.0,74.6,58.475473304292144,3.0550899395377584,113.70950594454668,High,True
C-59,dl-malic acid;  dl-2-hydroxybutanedioic acid;  hydroxysuccinic acid,"InChI=1S/C4H6O5/c5-2(4(8)9)1-3(6)7/h2,5H,1H2,(H,6,7)(H,8,9)",BJEPYKJPYRNKOW-UHFFFAOYSA-N,OC(CC(O)=O)C(O)=O,0.64,0.1561988766033257,4,G5,134.08699999999996,-1.0934,25.895399999999995,9.0,3.0,3.0,5.0,3.0,52.0,0.0,0.0,0.0,0.0,94.83,50.53982282769493,3.632432151939845,128.919684538544,High,True
C-63,phenol,"InChI=1S/C6H6O/c7-6-4-2-1-3-5-6/h1-5,7H",ISWSIDIOOBJBQZ-UHFFFAOYSA-N,OC1=CC=CC=C1,-0.04,0.0234158540784277,3,G5,94.113,1.3922,28.106799999999996,7.0,1.0,1.0,1.0,0.0,36.0,1.0,0.0,0.0,1.0,20.23,42.22563687169298,3.0214653097240864,134.10736969541455,High,True
C-65,l-glutamine,"InChI=1S/C5H10N2O3/c6-3(5(9)10)1-2-4(7)8/h3H,1-2,6H2,(H2,7,8)(H,9,10)",ZDXPYRJPNDTMRX-UHFFFAOYSA-N,NC(CCC(N)=O)C(O)=O,-0.54,0.005,2,G3,146.14600000000002,-1.3361999999999998,34.03959999999999,10.0,3.0,3.0,5.0,4.0,58.0,0.0,0.0,0.0,0.0,106.41,57.996078831724944,3.4907296603908136,145.8284895747849,High,True
C-72,l(+)-arginine,"InChI=1S/C6H14N4O2/c7-4(5(11)12)2-1-3-10-6(8)9/h4H,1-3,7H2,(H,11,12)(H4,8,9,10)",ODKSFYDXXFIFQN-UHFFFAOYSA-N,NC(CCCNC(N)=N)C(O)=O,0.0,0.0435535813227057,4,G5,174.204,-1.338429999999999,44.762000000000015,12.0,3.0,5.0,6.0,5.0,70.0,0.0,0.0,0.0,0.0,125.22,70.43471202895064,3.3118352065890755,170.93102051518318,High,True
C-81,"1,3-phenylenediamine;  1,3-diaminobenzene","InChI=1S/C6H8N2/c7-5-2-1-3-6(8)4-5/h1-4H,7-8H2",WZCQRUWWHSTZEM-UHFFFAOYSA-N,NC1=CC(=CC=C1)N,0.51,0.106096776460592,3,G5,108.144,0.851,35.2668,8.0,2.0,2.0,2.0,0.0,42.0,1.0,0.0,0.0,1.0,52.04,48.11118451352239,3.077660437970554,166.38833891467198,High,True
C-91,4-ethylphenol,"InChI=1S/C8H10O/c1-2-7-3-5-8(9)6-4-7/h3-6,9H,2H2,1H3",HXDOZKJGKXYMEW-UHFFFAOYSA-N,CCC1=CC=C(O)C=C1,-1.4,0.1081023502162792,3,G5,122.16699999999996,1.9546,37.48480000000001,9.0,1.0,1.0,1.0,1.0,48.0,1.0,0.0,0.0,1.0,20.23,54.95552110048619,2.881555877646136,176.26405299160075,High,True
C-105,"1,2,4,5-tetramethylbenzene;  durene","InChI=1S/C10H14/c1-7-5-9(3)10(4)6-8(7)2/h5-6H,1-4H3",SQNZJJAZBFDUTD-UHFFFAOYSA-N,CC1=CC(=C(C)C=C1C)C,-3.84,0.3731,2,G3,134.22199999999998,2.9202800000000018,45.39000000000002,10.0,0.0,0.0,0.0,0.0,54.0,1.0,0.0,0.0,1.0,0.0,62.89117157708339,3.2824629074535228,196.2103774276832,Medium,False
C-107,"1,4-dichlorobenzene",InChI=1S/C6H4Cl2/c7-5-1-2-6(8)4-3-5/h1-4H,OCJBOOLMMGQPQU-UHFFFAOYSA-N,ClC1=CC=C(Cl)C=C1,-3.35,0.1518478482041936,6,G5,147.00400000000002,2.993400000000001,36.46200000000001,8.0,0.0,0.0,2.0,0.0,42.0,1.0,0.0,0.0,1.0,0.0,58.03793557326031,3.0324555320336755,145.38833891467198,High,True
C-109,"5,5-diethylbarbituric  acid;  veronal;  barbital;  barbitone","InChI=1S/C8H12N2O3/c1-3-8(4-2)5(11)9-7(13)10-6(8)12/h3-4H2,1-2H3,(H2,9,10,11,12,13)",FTOAOBMCPZCFFF-UHFFFAOYSA-N,CCC1(CC)C(=O)NC(=O)NC1=O,-1.42,0.4685682115646438,3,G5,184.195,0.1587999999999999,44.69640000000001,13.0,3.0,2.0,5.0,2.0,72.0,0.0,1.0,1.0,1.0,75.27000000000001,75.87230534242397,3.0073639750208327,246.56270446889653,High,True
C-112,3-hydroxybenzaldehyde,"InChI=1S/C7H6O2/c8-5-6-2-1-3-7(9)4-6/h1-5,9H",IAVREABSGIHHMO-UHFFFAOYSA-N,OC1=CC=CC(=C1)C=O,-1.23,0.29125,2,G3,122.12299999999998,1.2047,33.4943,9.0,2.0,1.0,2.0,1.0,46.0,1.0,0.0,0.0,1.0,37.3,52.75210108613335,3.070760681783566,217.91106510209752,High,True
C-122,"phloroglucinol;  1,3,5-benzenetriol;  1,3,5-trihydroxybenzene","InChI=1S/C6H6O3/c7-4-1-5(8)3-6(9)2-4/h1-3,7-9H",QCDYQQDYXPDABM-UHFFFAOYSA-N,OC1=CC(=CC(=C1)O)O,-1.05,0.0126999999999999,2,G3,126.11099999999996,0.8033999999999997,31.436399999999992,9.0,3.0,3.0,3.0,0.0,48.0,1.0,0.0,0.0,1.0,60.69,51.814104376085,3.165670309917317,169.06517765499825,High,True
C-128,ethallobarbital;  5-allyl-5-ethylbarbituric  acid,"InChI=1S/C9H12N2O3/c1-3-5-9(4-2)6(12)10-8(14)11-7(9)13/h3H,1,4-5H2,2H3,(H2,10,11,12,13,14)",QPADNTZLUBYNEN-UHFFFAOYSA-N,CCC1(CC=C)C(=O)NC(=O)NC1=O,-1.61,0.0392499999999998,2,G3,196.206,0.3249000000000001,49.219400000000014,14.0,3.0,2.0,5.0,3.0,76.0,0.0,1.0,1.0,1.0,75.27000000000001,81.54764442463632,3.029713363154092,289.1789276376484,High,True
C-132,"metharbital;  5,5-diethyl-1-methylbarbituric acid","InChI=1S/C9H14N2O3/c1-4-9(5-2)6(12)10-8(14)11(3)7(9)13/h4-5H2,1-3H3,(H,10,12,14)",FWJKNZONDWOGMI-UHFFFAOYSA-N,CCC1(CC)C(=O)NC(=O)N(C)C1=O,-2.1,0.0939683752948594,3,G5,198.222,0.5009999999999999,49.32370000000002,14.0,3.0,1.0,5.0,2.0,78.0,0.0,1.0,1.0,1.0,66.48,82.4472189434159,3.115227612022728,294.4321921301733,High,True
C-137,4-methylbenzoic acid,"InChI=1S/C8H8O2/c1-6-2-4-7(5-3-6)8(9)10/h2-5H,1H3,(H,9,10)",LPNBBFKOUUSUDB-UHFFFAOYSA-N,CC1=CC=C(C=C1)C(O)=O,-2.53,0.0362500000000001,2,G3,136.14999999999998,1.69322,38.13830000000001,10.0,1.0,1.0,2.0,1.0,52.0,1.0,0.0,0.0,1.0,37.3,59.11704320052995,3.003400684579818,235.9394333808837,High,True
C-146,methidathion,"InChI=1S/C6H11N2O4PS3/c1-10-5-7-8(6(9)16-5)4-15-13(14,11-2)12-3/h4H2,1-3H3",MEBQXILRKZHVCX-UHFFFAOYSA-N,COC1=NN(CS[P](=S)(OC)OC)C(=O)S1,-3.1,0.0543,2,G3,302.339,1.5214,68.82000000000002,16.0,9.0,0.0,10.0,6.0,92.0,1.0,0.0,0.0,1.0,62.580000000000005,105.81636614652189,2.70750912340813,437.2272019195011,High,True
C-150,isoniazid;  isonicotinic acid hydrazide;  inh,"InChI=1S/C6H7N3O/c7-9-6(10)5-1-3-8-4-2-5/h1-4H,7H2,(H,9,10)",QRXWMOHMRWLFEY-UHFFFAOYSA-N,NNC(=O)C1=CC=NC=C1,-0.04,0.0245,2,G3,137.142,-0.3149000000000006,35.89060000000001,10.0,3.0,2.0,4.0,1.0,52.0,1.0,0.0,0.0,1.0,68.00999999999999,58.03740421573959,2.8526279288191434,221.69435494406167,High,True
C-152,2-fluorobenzoic  acid,"InChI=1S/C7H5FO2/c8-6-4-2-1-3-5(6)7(9)10/h1-4H,(H,9,10)",NSTREUWFTAOOKS-UHFFFAOYSA-N,OC(=O)C1=C(F)C=CC=C1,-1.39,0.0504,2,G3,140.113,1.5239,33.359300000000005,10.0,1.0,1.0,3.0,1.0,52.0,1.0,0.0,0.0,1.0,37.3,56.917636489059575,3.1529414466808685,257.53794892648057,High,True
C-158,anthranilic  acid;  2-aminobenzoic  acid,"InChI=1S/C7H7NO2/c8-6-4-2-1-3-5(6)7(9)10/h1-4H,8H2,(H,9,10)",RWZYAGGXGHYGMB-UHFFFAOYSA-N,NC1=C(C=CC=C1)C(O)=O,-1.52,0.0454050545562219,3,G5,137.13799999999998,0.967,37.81370000000001,10.0,2.0,2.0,3.0,1.0,52.0,1.0,0.0,0.0,1.0,63.32,58.09199178314606,3.1529414466808694,257.53794892648057,High,True
C-161,3-hydroxybenzoic acid,"InChI=1S/C7H6O3/c8-6-3-1-2-5(4-6)7(9)10/h1-4,8H,(H,9,10)",IJFXRHURBJZNAO-UHFFFAOYSA-N,OC(=O)C1=CC(=CC=C1)O,-1.24,0.01995,2,G3,138.122,1.0904,35.066100000000006,10.0,2.0,2.0,3.0,1.0,52.0,1.0,0.0,0.0,1.0,57.53,57.54633483832936,3.0698992657592745,254.78306142431708,High,True
C-163,5-ethyl-5-pentylbarbituric acid;  5-amyl-5-ethylbarbituric  acid,"InChI=1S/C11H18N2O3/c1-3-5-6-7-11(4-2)8(14)12-10(16)13-9(11)15/h3-7H2,1-2H3,(H2,12,13,14,15,16)",XYGXSCVUMIDZRR-UHFFFAOYSA-N,CCCCCC1(CC)C(=O)NC(=O)NC1=O,-2.51,0.1671499999999999,2,G3,226.276,1.3291,58.54740000000003,16.0,3.0,2.0,5.0,5.0,90.0,0.0,1.0,1.0,1.0,75.27000000000001,94.9671316856138,2.788484477314955,292.3515359368125,High,True
C-169,cymoxanil,"InChI=1S/C7H10N4O3/c1-3-9-7(13)10-6(12)5(4-8)11-14-2/h3H2,1-2H3,(H2,9,10,12,13)/b11-5+",XERJKGMBORTKEO-VZUCSPMQSA-N,CCNC(=O)NC(=O)C(=N/OC)/C#N,-2.3,0.0238500000000001,2,G3,198.182,-0.6419199999999998,47.27240000000002,14.0,5.0,2.0,7.0,3.0,76.0,0.0,0.0,0.0,0.0,103.58,80.7071581778265,4.27225609702679,291.800257684424,High,True
C-170,4-nitrophenol,"InChI=1S/C6H5NO3/c8-6-3-1-5(2-4-6)7(9)10/h1-4,8H",BTJIUGUIPKRLHP-UHFFFAOYSA-N,OC1=CC=C(C=C1)[N+]([O-])=O,-0.94,0.1391028476423909,3,G5,139.11,1.3003999999999998,34.76120000000001,10.0,3.0,1.0,4.0,1.0,52.0,1.0,0.0,0.0,1.0,63.37,56.87861259419278,3.003400684579818,241.6747708743933,High,True
C-173,hexamethylbenzene,InChI=1S/C12H18/c1-7-8(2)10(4)12(6)11(5)9(7)3/h1-6H3,YUWFEBAXEOLKSG-UHFFFAOYSA-N,CC1=C(C)C(=C(C)C(=C1C)C)C,-5.23,0.3045999999999997,2,G3,162.27599999999998,3.5371200000000025,54.86400000000003,12.0,0.0,0.0,0.0,0.0,66.0,1.0,0.0,0.0,1.0,0.0,75.6210558058766,3.603567451474548,214.30309024251744,Low,False
C-175,3-nitrophenol,"InChI=1S/C6H5NO3/c8-6-3-1-2-5(4-6)7(9)10/h1-4,8H",RTZZCYNQPHTPPL-UHFFFAOYSA-N,OC1=CC(=CC=C1)[N+]([O-])=O,-1.07,0.0285,2,G3,139.11,1.3003999999999998,34.76120000000001,10.0,3.0,1.0,4.0,1.0,52.0,1.0,0.0,0.0,1.0,63.37,56.87861259419278,3.069899265759275,258.9247708743934,High,True
C-196,indole,"InChI=1S/C8H7N/c1-2-4-8-7(3-1)5-6-9-8/h1-6,9H",SIKJAQJRHWYJAI-UHFFFAOYSA-N,[NH]1C=CC2=C1C=CC=C2,-1.21,0.1536480010500001,2,G3,117.15099999999995,2.1678999999999995,38.29870000000002,9.0,0.0,1.0,1.0,0.0,44.0,2.0,0.0,0.0,2.0,15.79,53.32222807224647,2.9546597902851044,278.54542122074673,High,True
C-217,2-anisic  acid;  2-methoxybenzoic  acid,"InChI=1S/C8H8O3/c1-11-7-5-3-2-4-6(7)8(9)10/h2-5H,1H3,(H,9,10)",ILUJQPXNXACGAN-UHFFFAOYSA-N,COC1=CC=CC=C1C(O)=O,-1.6,0.05835,2,G3,152.14899999999997,1.3934,39.953300000000006,11.0,2.0,1.0,3.0,2.0,58.0,1.0,0.0,0.0,1.0,46.53,64.23058843003683,3.121219318886157,267.7946100817276,High,True
C-225,acephate;  orthene,"InChI=1S/C4H10NO3PS/c1-4(6)5-9(7,8-2)10-3/h1-3H3,(H,5,6,7)",YASYVMFAVPKPKE-UHFFFAOYSA-N,CO[P](=O)(NC(C)=O)SC,0.54,0.05495,2,G3,183.169,1.24,41.94720000000002,10.0,4.0,1.0,6.0,3.0,60.0,0.0,0.0,0.0,0.0,55.4,63.96318106664046,4.0741188846199865,163.8856389575664,High,True
C-229,3-nitrobenzaldehyde,InChI=1S/C7H5NO3/c9-5-6-2-1-3-7(4-6)8(10)11/h1-5H,ZETIVVHRRQLWFW-UHFFFAOYSA-N,[O-][N+](=O)C1=CC=CC(=C1)C=O,-1.98,0.0064499999999999,2,G3,151.12099999999998,1.4073,38.48390000000001,11.0,3.0,0.0,4.0,2.0,56.0,1.0,0.0,0.0,1.0,60.21,62.61084305643713,3.0995997413346403,295.4920897763861,High,True
C-231,thiopental;  5-ethyl-5-(2-pentyl)-2-thiobarbituric  acid,"InChI=1S/C11H18N2O2S/c1-4-6-7(3)11(5-2)8(14)12-10(16)13-9(11)15/h7H,4-6H2,1-3H3,(H2,12,13,14,15,16)",IUJDSEJGGMCXSG-UHFFFAOYSA-N,CCCC(C)C1(CC)C(=O)NC(=S)NC1=O,-3.6,0.1200000000000001,2,G3,242.344,1.3499,65.67940000000003,16.0,3.0,2.0,5.0,4.0,90.0,0.0,1.0,1.0,1.0,58.2,101.1643898327749,3.0460336908423664,307.9462521949897,High,True
C-234,ethyl 4-hydroxybenzoate;  ethylparaben,"InChI=1S/C9H10O3/c1-2-12-9(11)7-3-5-8(10)6-4-7/h3-6,10H,2H2,1H3",NUVBSKCKDOMJSU-UHFFFAOYSA-N,CCOC(=O)C1=CC=C(O)C=C1,-2.2,0.1383240245432793,5,G5,166.176,1.5689,44.06330000000003,12.0,3.0,1.0,3.0,2.0,64.0,1.0,0.0,0.0,1.0,46.53,70.59553054443343,2.753742758109602,263.6070662599115,High,True
C-244,methyl  4-methoxybenzoate,"InChI=1S/C9H10O3/c1-11-8-5-3-7(4-6-8)9(10)12-2/h3-6H,1-2H3",DDIZAANNODHTRB-UHFFFAOYSA-N,COC(=O)C1=CC=C(OC)C=C1,-2.34,0.0362,2,G3,166.176,1.4818,44.33350000000002,12.0,3.0,0.0,3.0,2.0,64.0,1.0,0.0,0.0,1.0,35.53,70.9148420217443,2.843524062030637,263.6070662599115,High,True
C-251,"2,5-dihydroxybenzoic   acid;  gentisic  acid","InChI=1S/C7H6O4/c8-4-1-2-6(9)5(3-4)7(10)11/h1-3,8-9H,(H,10,11)",WXTMDXOMEHJXQO-UHFFFAOYSA-N,OC(=O)C1=CC(=CC=C1O)O,-0.85,0.3194499999999999,2,G3,154.12099999999998,0.7959999999999998,36.730900000000005,11.0,3.0,3.0,4.0,1.0,58.0,1.0,0.0,0.0,1.0,77.76,62.34056859052537,3.2322088703054925,292.492089776386,High,True
C-256,4-acetamidobenzaldehyde; 4-acetylaminobenzaldehyde,"InChI=1S/C9H9NO2/c1-7(12)10-9-4-2-8(6-11)3-5-9/h2-6H,1H3,(H,10,12)",SKLUWKYNZNXSLX-UHFFFAOYSA-N,CC(=O)NC1=CC=C(C=O)C=C1,-1.63,0.0249999999999999,2,G3,163.176,1.4574999999999998,46.133200000000016,12.0,2.0,1.0,3.0,2.0,62.0,1.0,0.0,0.0,1.0,46.17,70.39913584638235,2.773021709979395,289.90177445528485,High,True
C-265,propylparaben;  propyl 4-hydroxybenzoate,"InChI=1S/C10H12O3/c1-2-7-13-10(12)8-3-5-9(11)6-4-8/h3-6,11H,2,7H2,1H3",QELSKZZBTMNZEB-UHFFFAOYSA-N,CCCOC(=O)C1=CC=C(O)C=C1,-2.68,0.0662930326635716,3,G5,180.203,1.959,48.68030000000003,13.0,3.0,1.0,3.0,3.0,70.0,1.0,0.0,0.0,1.0,46.53,76.96047265883006,2.611171250638134,276.7262618127396,High,True
C-273,norethindrone;  norethisterone,"InChI=1S/C20H26O2/c1-3-20(22)11-9-18-17-6-4-13-12-14(21)5-7-15(13)16(17)8-10-19(18,20)2/h1,12,15-18,22H,4-11H2,2H3",VIKNJXKGJWUCNN-UHFFFAOYSA-N,CC12CCC3C(CCC4=CC(=O)CCC34)C1CCC2(O)C#C,-4.63,0.157480157480236,3,G5,298.426,3.4925000000000024,85.87580000000004,22.0,2.0,1.0,2.0,0.0,118.0,0.0,3.0,4.0,4.0,37.3,132.91520479916298,1.6520192857313454,583.0048893946201,Low,False
C-286,2-bromobenzoic acid,"InChI=1S/C7H5BrO2/c8-6-4-2-1-3-5(6)7(9)10/h1-4H,(H,9,10)",XRXMNWGCKISMOH-UHFFFAOYSA-N,OC(=O)C1=C(Br)C=CC=C1,-2.05,0.0076499999999999,2,G3,201.019,2.1473000000000004,41.10130000000001,10.0,1.0,1.0,3.0,1.0,52.0,1.0,0.0,0.0,1.0,37.3,66.61964869177471,3.1529414466808685,257.53794892648057,High,True
C-287,chlordimeform,"InChI=1S/C10H13ClN2/c1-8-6-9(11)4-5-10(8)12-7-13(2)3/h4-7H,1-3H3",STUSTWKEFDQFFZ-UHFFFAOYSA-N,CN(C)C=NC1=C(C)C=C(Cl)C=C1,-2.88,0.0087999999999999,2,G3,196.681,2.8698200000000016,58.028000000000034,13.0,1.0,0.0,3.0,2.0,70.0,1.0,0.0,0.0,1.0,15.6,83.84959396002857,2.8972050907216187,318.70082633507934,High,True
C-302,"androstenedione;  androst-4-ene-3,17-dione","InChI=1S/C19H26O2/c1-18-9-7-13(20)11-12(18)3-4-14-15-5-6-17(21)19(15,2)10-8-16(14)18/h11,14-16H,3-10H2,1-2H3",AEMFNILZOJDQLW-UHFFFAOYSA-N,CC12CCC3C(CCC4=CC(=O)CCC34C)C1CCC2=O,-3.7,0.0050000000000001,2,G3,286.415,4.087400000000003,81.71700000000004,21.0,2.0,0.0,2.0,0.0,114.0,0.0,3.0,4.0,4.0,34.14,126.91832564075489,1.703811290891583,545.7696078462164,Medium,False
C-307,pteridine,InChI=1S/C6H4N4/c1-2-9-6-5(8-1)3-7-4-10-6/h1-4H,CPNGPNLZQNNVQM-UHFFFAOYSA-N,C1=NC2=C(N=C1)N=CN=C2,0.02,0.0071499999999999,2,G3,132.126,0.4197999999999998,35.128,10.0,4.0,0.0,4.0,0.0,48.0,2.0,0.0,0.0,2.0,51.56,56.99165957501821,2.888051601657992,280.7246883536015,High,True
C-310,hippuric  acid;  n-benzoylglycine,"InChI=1S/C9H9NO3/c11-8(12)6-10-9(13)7-4-2-1-3-5-7/h1-5H,6H2,(H,10,13)(H,11,12)",QIAFMBKCNZACKA-UHFFFAOYSA-N,OC(=O)CNC(=O)C1=CC=CC=C1,-1.69,0.0264553712252666,3,G5,179.175,0.5009999999999994,46.411000000000016,13.0,2.0,2.0,4.0,3.0,68.0,1.0,0.0,0.0,1.0,66.4,75.19336959857839,2.544573341953591,307.89566977313564,High,True
C-314,"monuron;  3-(4-chlorophenyl)-1,1-dimethylurea;  telvar","InChI=1S/C9H11ClN2O/c1-12(2)9(13)11-8-5-3-7(10)4-6-8/h3-6H,1-2H3,(H,11,13)",BMLIZLVNXIYGCK-UHFFFAOYSA-N,CN(C)C(=O)NC1=CC=C(Cl)C=C1,-2.89,0.0231999999999998,2,G3,198.653,2.4335000000000004,54.15770000000003,13.0,1.0,1.0,4.0,1.0,70.0,1.0,0.0,0.0,1.0,32.34,82.30071364342363,2.6460935389709666,294.9879407824652,High,True
C-319,2-nitrobenzoic acid,"InChI=1S/C7H5NO4/c9-7(10)5-3-1-2-4-6(5)8(11)12/h1-4H,(H,9,10)",SLAMLWHELXOEJZ-UHFFFAOYSA-N,OC(=O)C1=C(C=CC=C1)[N+]([O-])=O,-1.35,0.0623453464359788,3,G5,167.11999999999995,1.293,40.055700000000016,12.0,3.0,1.0,5.0,2.0,62.0,1.0,0.0,0.0,1.0,80.44,67.40507680863314,3.267076195703771,300.933190204761,High,True
C-329,"simazine;  2-chloro-4,6-di(ethylamino)-1,3,5-triazine","InChI=1S/C7H12ClN5/c1-3-9-6-11-5(8)12-7(13-6)10-4-2/h3-4H2,1-2H3,(H2,9,10,11,12,13)",ODCWYMIRDDJXKW-UHFFFAOYSA-N,CCNC1=NC(=NC(=N1)Cl)NCC,-4.55,0.2077337375948958,3,G5,201.661,1.3885999999999998,53.164400000000015,13.0,5.0,2.0,6.0,4.0,72.0,1.0,0.0,0.0,1.0,62.73,81.9531061140207,2.8288672837931865,253.3354536837116,Low,False
C-376,biphenyl;  diphenyl,InChI=1S/C12H10/c1-3-7-11(8-4-1)12-9-5-2-6-10-12/h1-10H,ZUOUZKKEUPVFJK-UHFFFAOYSA-N,C1=CC=C(C=C1)C2=CC=CC=C2,-4.32,0.0155366233997825,3,G5,154.21199999999996,3.353600000000002,51.87800000000003,12.0,0.0,0.0,0.0,1.0,58.0,2.0,0.0,0.0,2.0,0.0,72.48849732556099,2.457149480139045,297.4313204906765,Medium,False
C-382,chenodeoxycholic  acid;  chenodiol,"InChI=1S/C24H40O4/c1-14(4-7-21(27)28)17-5-6-18-22-19(9-11-24(17,18)3)23(2)10-8-16(25)12-15(23)13-20(22)26/h14-20,22,25-26H,4-13H2,1-3H3,(H,27,28)",RUDATBOHQWOJDD-UHFFFAOYSA-N,CC(CCC(O)=O)C1CCC2C3C(O)CC4CC(O)CCC4(C)C3CCC12C,-4.57,0.4915790882452181,4,G5,392.5800000000002,4.477900000000004,108.64740000000008,28.0,3.0,3.0,4.0,4.0,160.0,0.0,4.0,4.0,4.0,77.76,169.65381840146642,1.5548220176091474,605.412568486979,Low,False
C-401,"propazine;  2-chloro-4,6-bis(isopropylamino)-1,3,5-triazine","InChI=1S/C9H16ClN5/c1-5(2)11-8-13-7(10)14-9(15-8)12-6(3)4/h5-6H,1-4H3,(H2,11,12,13,14,15)",WJNRPILHGGKWCK-UHFFFAOYSA-N,CC(C)NC1=NC(=NC(=N1)Cl)NC(C)C,-4.46,0.2082008171911345,3,G5,229.715,2.1655999999999995,62.35440000000003,15.0,5.0,2.0,6.0,4.0,84.0,1.0,0.0,0.0,1.0,62.73,94.68299034281392,2.8436364364825457,298.02878439482896,Medium,False
C-406,triforine,"InChI=1S/C10H14Cl6N4O2/c11-9(12,13)7(17-5-21)19-1-2-20(4-3-19)8(18-6-22)10(14,15)16/h5-8H,1-4H2,(H,17,21)(H,18,22)",RROQIUMZODEXOR-UHFFFAOYSA-N,ClC(Cl)(Cl)C(NC=O)N1CCN(CC1)C(NC=O)C(Cl)(Cl)Cl,-4.16,0.0150000000000001,2,G3,434.966,1.4885999999999997,89.70140000000002,22.0,4.0,2.0,12.0,6.0,128.0,0.0,1.0,1.0,1.0,64.68,157.77993217287025,2.715463548997536,344.5934897520126,Medium,False
C-412,monolinuron;  3-(4-chlorophenyl)-1-methoxy-1-methylurea,"InChI=1S/C9H11ClN2O2/c1-12(14-2)9(13)11-8-5-3-7(10)4-6-8/h3-6H,1-2H3,(H,11,13)",LKJPSUCKSLORMF-UHFFFAOYSA-N,CON(C)C(=O)NC1=CC=C(Cl)C=C1,-2.47,0.0844409589923962,3,G5,214.652,2.365100000000001,55.24270000000003,14.0,2.0,1.0,5.0,2.0,76.0,1.0,0.0,0.0,1.0,41.57,87.3682973724085,2.604870971658759,313.0929223461079,High,True
C-415,4-chloro-3-nitrobenzoic  acid,"InChI=1S/C7H4ClNO4/c8-5-2-1-4(7(10)11)3-6(5)9(12)13/h1-3H,(H,10,11)",DFXQXFGFOLXAPO-UHFFFAOYSA-N,OC(=O)C1=CC=C(Cl)C(=C1)[N+]([O-])=O,-2.76,0.0849999999999999,2,G3,201.565,1.9464,45.0657,13.0,3.0,1.0,6.0,2.0,68.0,1.0,0.0,0.0,1.0,80.44,77.70834303551482,3.267052212361691,376.7553335743196,High,True