ID,Name,InChI,InChIKey,SMILES,Solubility,SD,Ocurrences,Group,MolWt,MolLogP,MolMR,HeavyAtomCount,NumHAcceptors,NumHDonors,NumHeteroatoms,NumRotatableBonds,NumValenceElectrons,NumAromaticRings,NumSaturatedRings,NumAliphaticRings,RingCount,TPSA,LabuteASA,BalabanJ,BertzCT,bin,is_sol
A-1578,"sodium 2-[(4-hydroxy-9,10-dioxo-9,10-dihydroanthracen-1-yl)amino]-5-methylbenzene-1-sulfonate","InChI=1S/C21H15NO6S.Na/c1-11-6-7-14(17(10-11)29(26,27)28)22-15-8-9-16(23)19-18(15)20(24)12-4-2-3-5-13(12)21(19)25;/h2-10,22-23H,1H3,(H,26,27,28);/q;+1/p-1",GTKIEPUIFBBXJQ-UHFFFAOYSA-M,[Na+].Cc1ccc(Nc2ccc(O)c3C(=O)c4ccccc4C(=O)c23)c(c1)[S]([O-])(=O)=O,-2.4023932811,0.3837560668000001,2,G3,431.4010000000002,0.1277200000000001,103.83870000000005,30.0,7.0,2.0,9.0,3.0,146.0,3.0,0.0,1.0,4.0,123.6,194.34376248992984,2.559997189869837e-06,1317.0670432644094,High,True
A-1579,"2,3-dihydro-1,2-benzothiazol-3-one","InChI=1S/C7H5NOS/c9-7-5-3-1-2-4-6(5)10-8-7/h1-4H,(H,8,9)",DMSMPAJRVJJAGA-UHFFFAOYSA-N,O=C1NSc2ccccc12,-1.9472895459,0.2350130610292352,12,G5,151.18999999999997,1.5896,42.445700000000016,10.0,2.0,1.0,3.0,0.0,50.0,2.0,0.0,0.0,2.0,32.86,61.27569099157935,3.070614737543394,400.8983534112405,High,True
A-1587,Isolongifolanone,"InChI=1S/C15H24O/c1-13(2)7-6-11(16)12-14(3,4)10-5-8-15(12,13)9-10/h10,12H,5-9H2,1-4H3",VCOCESNMLNDPLX-UHFFFAOYSA-N,CC1(C)C2CCC3(C2)C1C(=O)CCC3(C)C,-4.0976122125,0.0788039266999995,2,G3,220.356,3.818000000000003,65.06700000000005,16.0,1.0,0.0,1.0,0.0,90.0,0.0,3.0,3.0,3.0,17.07,98.99246926883812,2.1375574290078867,352.44645225201987,Medium,False
A-1600,nonan-2-one,"InChI=1S/C9H18O/c1-3-4-5-6-7-8-9(2)10/h3-8H2,1-2H3",VKCYHJWLYTUGCC-UHFFFAOYSA-N,CCCCCCCC(C)=O,-2.9303113789,0.1733287191999999,2,G3,142.242,2.935900000000002,44.057000000000016,10.0,1.0,0.0,1.0,6.0,60.0,0.0,0.0,0.0,0.0,17.07,63.82031004304618,2.8385891218139165,86.72905595320057,High,True
A-1601,"1-methyl-2,4-dinitrobenzene; 2-methyl-1,3-dinitrobenzene","InChI=1S/C7H6N2O4/c1-5-2-3-6(8(10)11)4-7(5)9(12)13/h2-4H,1H3",RMBFBMJGBANMMK-UHFFFAOYSA-N,Cc1ccc(cc1[N+]([O-])=O)[N+]([O-])=O,-3.040285322,0.1114341643368585,3,G5,182.135,1.8114200000000005,44.487800000000014,13.0,4.0,0.0,6.0,2.0,68.0,1.0,0.0,0.0,1.0,86.28,73.10229667889317,3.267052212361692,374.7553335743196,High,True
A-1606,4-[(3-hydroxypropyl)amino]-3-nitrophenol,"InChI=1S/C9H12N2O4/c12-5-1-4-10-8-3-2-7(13)6-9(8)11(14)15/h2-3,6,10,12-13H,1,4-5H2",VTXBLQLZQLHDIL-UHFFFAOYSA-N,OCCCNc1ccc(O)cc1[N+]([O-])=O,-2.1105897103,0.0251641387999999,2,G3,212.205,1.0946999999999996,54.95370000000002,15.0,5.0,3.0,6.0,5.0,82.0,1.0,0.0,0.0,1.0,95.63,86.31753487318664,2.812006596448641,353.9656228228465,High,True
A-1612,"1,2-xylene","InChI=1S/C8H10/c1-7-5-3-4-6-8(7)2/h3-6H,1-2H3",CTQNGGLPUBDAKN-UHFFFAOYSA-N,Cc1ccccc1C,-2.8191677601,0.0321733662692313,5,G5,106.168,2.30344,35.916,8.0,0.0,0.0,0.0,0.0,42.0,1.0,0.0,0.0,1.0,0.0,50.16128734829018,3.134861511345448,156.14811391899892,High,True
A-1614,"1,4-xylene","InChI=1S/C8H10/c1-7-3-5-8(2)6-4-7/h3-6H,1-2H3",URLKBWYHVLBVBO-UHFFFAOYSA-N,Cc1ccc(C)cc1,-2.8191677601,0.0321733662692313,5,G5,106.168,2.30344,35.916,8.0,0.0,0.0,0.0,0.0,42.0,1.0,0.0,0.0,1.0,0.0,50.16128734829017,3.0324555320336755,138.89811391899892,High,True
A-1619,2-phenylethyl 2-methylpropanoate,"InChI=1S/C12H16O2/c1-10(2)12(13)14-9-8-11-6-4-3-5-7-11/h3-7,10H,8-9H2,1-2H3",JDQVBGQWADMTAM-UHFFFAOYSA-N,CC(C)C(=O)OCCc1ccccc1,-3.0797644375,0.0391084439849002,3,G5,192.258,2.4283,55.94300000000004,14.0,2.0,0.0,2.0,4.0,76.0,1.0,0.0,0.0,1.0,26.3,84.89612313542726,2.2575072289904474,277.63302033025855,High,True
A-1620,"4-(2,6,6-trimethylcyclohex-1-en-1-yl)but-3-en-2-one","InChI=1S/C13H20O/c1-10-6-5-9-13(3,4)12(10)8-7-11(2)14/h7-8H,5-6,9H2,1-4H3/b8-7+",PSQYTAPXSHCGMF-BQYQJAHWSA-N,CC(=O)/C=C/C1=C(C)CCCC1(C)C,-3.0798638184,0.0830445778968299,3,G5,192.302,3.6582000000000026,60.15300000000004,14.0,1.0,0.0,1.0,2.0,78.0,0.0,0.0,1.0,1.0,17.07,86.89504128273488,2.96127747123545,292.35742381695854,High,True
A-1623,"N,N-dimethyldecan-1-amine","InChI=1S/C12H27N/c1-4-5-6-7-8-9-10-11-12-13(2)3/h4-12H2,1-3H3",YWWNNLPSZSEZNZ-UHFFFAOYSA-N,CCCCCCCCCCN(C)C,-4.0452878346,0.1950336928,2,G3,185.355,3.6887000000000025,61.16400000000006,13.0,1.0,0.0,1.0,9.0,80.0,0.0,0.0,0.0,0.0,3.24,84.51344795639562,2.8354061560854147,89.12526634448808,Medium,False
A-1627,2-methyloctane-2-thiol,"InChI=1S/C9H20S/c1-4-5-6-7-8-9(2,3)10/h10H,4-8H2,1-3H3",MPBLPZLNKKGCGP-UHFFFAOYSA-N,CCCCCCC(C)(C)S,-3.9901601094,0.194517551296195,3,G5,160.326,3.6652000000000022,51.82400000000004,10.0,1.0,1.0,1.0,5.0,62.0,0.0,0.0,0.0,0.0,0.0,70.81385460640415,3.0437584089734577,71.28767654158642,Medium,False
A-1629,O-(4-bromo-2-chlorophenyl) O-ethyl S-propyl thiophosphate,"InChI=1S/C11H15BrClO3PS/c1-3-7-18-17(14,15-4-2)16-11-6-5-9(12)8-10(11)13/h5-6,8H,3-4,7H2,1-2H3",QYMMJNLHFKGANY-UHFFFAOYSA-N,CCCS[P](=O)(OCC)Oc1ccc(Br)cc1Cl,-4.365622838,0.1201660776499999,2,G3,373.636,5.7691000000000034,81.76150000000004,18.0,4.0,0.0,7.0,7.0,102.0,1.0,0.0,0.0,1.0,35.53,124.9886530478484,2.8510032626884056,444.2965436360365,Medium,False
A-1630,zinc bis(dinonylnaphthalenesulphonate),"InChI=1S/2C28H44O3S.Zn/c2*1-3-5-7-9-11-13-15-19-24-23-25-20-17-18-22-27(25)28(32(29,30)31)26(24)21-16-14-12-10-8-6-4-2;/h2*17-18,20,22-23H,3-16,19,21H2,1-2H3,(H,29,30,31);/q;;+2/p-2",COGHWIKGZJHSAG-UHFFFAOYSA-L,[Zn++].CCCCCCCCCc1cc2ccccc2c(c1CCCCCCCCC)[S]([O-])(=O)=O.CCCCCCCCCc3cc4ccccc4c(c3CCCCCCCCC)[S]([O-])(=O)=O,-4.7884242194,0.0348872210429197,3,G5,984.8219999999992,16.657699999999966,270.61039999999923,65.0,6.0,0.0,9.0,34.0,360.0,4.0,0.0,0.0,4.0,114.39999999999998,410.1361737234844,4.3999997584377276e-07,1963.261094451492,Low,False
A-1634,2-methyldecanal,"InChI=1S/C11H22O/c1-3-4-5-6-7-8-9-11(2)10-12/h10-11H,3-9H2,1-2H3",LBICMZLDYMBIGA-UHFFFAOYSA-N,CCCCCCCCC(C)C=O,-4.0270844645,0.24742501085,2,G3,170.296,3.5720000000000027,53.22100000000004,12.0,1.0,0.0,1.0,8.0,72.0,0.0,0.0,0.0,0.0,17.07,76.5501942718394,2.947948425070748,99.17723487531202,Medium,False
A-1640,"2,3,6-trimethylphenol","InChI=1S/C9H12O/c1-6-4-5-7(2)9(10)8(6)3/h4-5,10H,1-3H3",QQOMQLYQAXGHSU-UHFFFAOYSA-N,Cc1ccc(C)c(O)c1C,-1.9355008883,0.0231843712999999,2,G3,136.194,2.3174600000000005,42.31780000000001,10.0,1.0,1.0,1.0,0.0,54.0,1.0,0.0,0.0,1.0,20.23,61.32046321488279,3.3421538077705124,224.150333363576,High,True
A-1643,"1,3-xylene","InChI=1S/C8H10/c1-7-4-3-5-8(2)6-7/h3-6H,1-2H3",IVSZLXZYQVIEFR-UHFFFAOYSA-N,Cc1cccc(C)c1,-2.8328690378,0.0751812379635976,6,G5,106.168,2.30344,35.916,8.0,0.0,0.0,0.0,0.0,42.0,1.0,0.0,0.0,1.0,0.0,50.16128734829017,3.077660437970554,159.89811391899892,High,True
A-1648,Dioxosilane,InChI=1S/O2Si/c1-3-2,VYPSYNLAJGMNEJ-UHFFFAOYSA-N,O=[Si]=O,-3.6026675784,0.406944361470366,3,G5,60.084,-0.6184000000000001,7.126999999999999,3.0,2.0,0.0,3.0,0.0,16.0,0.0,0.0,0.0,0.0,34.14,19.40222479242814,3.2659863237109046,23.774437510817343,High,True
A-1662,"1,2-dimethyl-3-nitrobenzene","InChI=1S/C8H9NO2/c1-6-4-3-5-8(7(6)2)9(10)11/h3-5H,1-2H3",FVHAWXWFPBPFOS-UHFFFAOYSA-N,Cc1cccc(c1C)[N+]([O-])=O,-3.0033599893000003,0.0539526986999998,2,G3,151.165,2.21164,42.57040000000002,11.0,2.0,0.0,3.0,1.0,58.0,1.0,0.0,0.0,1.0,43.14,64.81426307078998,3.273580821537543,294.14357423078934,High,True
A-1670,2-phenylethyl 2-phenylacetate,"InChI=1S/C16H16O2/c17-16(13-15-9-5-2-6-10-15)18-12-11-14-7-3-1-4-8-14/h1-10H,11-13H2",ZOZIRNMDEZKZHM-UHFFFAOYSA-N,O=C(Cc1ccccc1)OCCc2ccccc2,-4.1887477927,0.0752065440500002,2,G3,240.302,3.015000000000001,71.25100000000005,18.0,2.0,0.0,2.0,5.0,92.0,2.0,0.0,0.0,2.0,26.3,107.2233331126981,1.7257772363989228,476.9648515208871,Medium,False
A-1678,"1,2-bis(prop-2-en-1-yl) benzene-1,2-dicarboxylate","InChI=1S/C14H14O4/c1-3-9-17-13(15)11-7-5-6-8-12(11)14(16)18-10-4-2/h3-8H,1-2,9-10H2",QUDWYFHPNIMBFC-UHFFFAOYSA-N,C=CCOC(=O)c1ccccc1C(=O)OCC=C,-3.2211356868000003,0.2862505989156169,4,G5,246.26199999999997,2.3722000000000003,67.40100000000002,18.0,4.0,0.0,4.0,6.0,94.0,1.0,0.0,0.0,1.0,52.60000000000001,105.52186862940262,2.907709957142368,419.6167252520633,High,True
A-1685,"3,3,5-trimethylcyclohexanol","InChI=1S/C9H18O/c1-7-4-8(10)6-9(2,3)5-7/h7-8,10H,4-6H2,1-3H3",BRRVXFOKWJKTGG-UHFFFAOYSA-N,CC1CC(O)CC(C)(C)C1,-1.9916598479,0.0469522514499999,2,G3,142.24199999999996,2.1935,42.80280000000001,10.0,1.0,1.0,1.0,0.0,60.0,0.0,1.0,1.0,1.0,20.23,63.44719054166919,2.509938883631114,105.89667380414838,High,True
A-1686,"N,N-dimethylaniline","InChI=1S/C8H11N/c1-9(2)8-6-4-3-5-7-8/h3-7H,1-2H3",JLTDJTHDQAWBAV-UHFFFAOYSA-N,CN(C)c1ccccc1,-1.9220736974,0.0410933781,2,G3,121.18299999999996,1.7526,40.76900000000002,9.0,1.0,0.0,1.0,1.0,48.0,1.0,0.0,0.0,1.0,3.24,55.92112101849355,2.848234050597751,167.1823264341432,High,True
A-1688,potassium iodide,InChI=1S/HI.K/h1H;/q;+1/p-1,NLKNQRATVPKPDG-UHFFFAOYSA-M,[K+].[I-],0.935222717,0.092431073106681,3,G5,166.002,-5.992,0.0,2.0,0.0,0.0,2.0,0.0,8.0,0.0,0.0,0.0,0.0,0.0,73.43483487190015,0.0,2.0,High,True
A-1690,(2E)-3-phenylprop-2-enal,InChI=1S/C9H8O/c10-8-4-7-9-5-2-1-3-6-9/h1-8H/b7-4+,KJPRLNWUNMBNBZ-QPJJXVBHSA-N,O=C/C=C/c1ccccc1,-1.9688182578,0.1188252760161906,3,G5,132.16199999999998,1.8987,41.54000000000002,10.0,1.0,0.0,1.0,2.0,50.0,1.0,0.0,0.0,1.0,17.07,59.998148530546295,2.7587670006154434,223.7433990600969,High,True
A-1694,N-(4-hydroxyphenyl)acetamide,"InChI=1S/C8H9NO2/c1-6(10)9-7-2-4-8(11)5-3-7/h2-5,11H,1H3,(H,9,10)",RZVAJINKPMORJF-UHFFFAOYSA-N,CC(=O)Nc1ccc(O)cc1,-1.0333232127,0.0793162856566452,3,G5,151.165,1.3505999999999998,42.41050000000002,11.0,2.0,2.0,3.0,1.0,58.0,1.0,0.0,0.0,1.0,49.33,64.66690538413799,2.7362980721056545,253.2994975838911,High,True
A-1702,nonan-1-ol,"InChI=1S/C9H20O/c1-2-3-4-5-6-7-8-9-10/h10H,2-9H2,1H3",ZWRUINPWMLAQRD-UHFFFAOYSA-N,CCCCCCCCCO,-3.0130118711,0.4352204596411788,4,G5,144.258,2.7293000000000016,45.078800000000015,10.0,1.0,1.0,1.0,7.0,62.0,0.0,0.0,0.0,0.0,20.23,64.45302169519843,2.6476048489438337,44.68995593589281,High,True
A-1705,"1,4-dioxacycloheptadecane-5,17-dione",InChI=1S/C15H26O4/c16-14-10-8-6-4-2-1-3-5-7-9-11-15(17)19-13-12-18-14/h1-13H2,XRHCAGNSDHCHFJ-UHFFFAOYSA-N,O=C1CCCCCCCCCCCC(=O)OCCO1,-4.2616951793,0.1677679630832992,4,G5,270.3689999999999,3.377500000000002,72.70500000000006,19.0,4.0,0.0,4.0,0.0,110.0,0.0,1.0,1.0,1.0,52.60000000000001,115.39274413495416,2.216244891666003,236.8711889381276,Medium,False
A-1707,5-chloro-2-(4-chlorophenoxy)phenol,"InChI=1S/C12H8Cl2O2/c13-8-1-4-10(5-2-8)16-12-6-3-9(14)7-11(12)15/h1-7,15H",BYNQFCJOHGOKSS-UHFFFAOYSA-N,Oc1cc(Cl)ccc1Oc2ccc(Cl)cc2,-4.2393931239,0.1188718714048985,3,G5,255.1,4.491300000000002,64.64280000000002,16.0,2.0,1.0,4.0,2.0,82.0,2.0,0.0,0.0,2.0,29.46,103.00280876102724,2.233817117740491,494.8719889797813,Medium,False
A-1712,"N~2~-(4,6-diamino-1,3,5-triazin-2-yl)-1,3,5-triazine-2,4,6-triamine","InChI=1S/C6H9N11/c7-1-11-2(8)14-5(13-1)17-6-15-3(9)12-4(10)16-6/h(H9,7,8,9,10,11,12,13,14,15,16,17)",YZEZMSPGIPTEBA-UHFFFAOYSA-N,Nc1nc(N)nc(Nc2nc(N)nc(N)n2)n1,-4.2253369782,0.2623664101963551,5,G5,235.215,-1.871000000000001,60.58629999999997,17.0,11.0,5.0,11.0,2.0,88.0,2.0,0.0,0.0,2.0,193.45,94.71581018289892,2.305198639989204,461.6530739446814,Medium,False
A-1715,methylcyclohexane,"InChI=1S/C7H14/c1-7-5-3-2-4-6-7/h7H,2-6H2,1H3",UAEPNZWRGJTJPN-UHFFFAOYSA-N,CC1CCCCC1,-3.8459348013,0.0289674006499998,2,G3,98.189,2.5866000000000007,32.24899999999998,7.0,0.0,0.0,0.0,0.0,42.0,0.0,1.0,1.0,1.0,0.0,45.92307256067996,2.1229179499593664,42.0,Medium,False
A-1720,dimethyl carbonate,InChI=1S/C3H6O3/c1-5-3(4)6-2/h1-2H3,IEJIGPNLZYLLBP-UHFFFAOYSA-N,COC(=O)OC,0.1852603514,0.04015783425,2,G3,90.078,0.3992,19.413999999999994,6.0,3.0,0.0,3.0,0.0,36.0,0.0,0.0,0.0,0.0,35.53,35.8577478156803,2.9881608821342693,44.0,High,True
A-1723,cyclohexyl 2-methylprop-2-enoate,"InChI=1S/C10H16O2/c1-8(2)10(11)12-9-6-4-3-5-7-9/h9H,1,3-7H2,2H3",OIWOHHBRDFKZNC-UHFFFAOYSA-N,CC(=C)C(=O)OC1CCCCC1,-3.0885648226,0.0067512352,2,G3,168.23599999999996,2.438400000000001,47.779000000000025,12.0,2.0,0.0,2.0,2.0,68.0,0.0,1.0,1.0,1.0,26.3,73.60336320123619,2.291009334754761,178.27760081648816,High,True
A-1727,benzyl butanoate,"InChI=1S/C11H14O2/c1-2-6-11(12)13-9-10-7-4-3-5-8-10/h3-5,7-8H,2,6,9H2,1H3",VONGZNXBKCOUHB-UHFFFAOYSA-N,CCCC(=O)OCc1ccccc1,-3.1174443354,0.1583435492,2,G3,178.231,2.5299000000000005,51.14600000000004,13.0,2.0,0.0,2.0,4.0,70.0,1.0,0.0,0.0,1.0,26.3,78.53118102103066,2.310042822879905,254.05260581186823,High,True
A-1741,"3,5-dinitrobenzoic acid","InChI=1S/C7H4N2O6/c10-7(11)4-1-5(8(12)13)3-6(2-4)9(14)15/h1-3H,(H,10,11)",VYWYYJYRVSBHJQ-UHFFFAOYSA-N,OC(=O)c1cc(cc(c1)[N+]([O-])=O)[N+]([O-])=O,-2.2076497234,0.0057248616999998,2,G3,212.117,1.2011999999999998,46.7101,15.0,5.0,1.0,8.0,3.0,78.0,1.0,0.0,0.0,1.0,123.58,82.05805253113294,3.387380075453351,375.7865269397283,High,True
A-1744,aminothiourea,"InChI=1S/CH5N3S/c2-1(5)4-3/h3H2,(H3,2,4,5)",BRWIZMBXBAOCCF-UHFFFAOYSA-N,NNC(N)=S,-0.8457609068,0.0569716761499999,2,G3,91.139,-1.3067000000000002,24.10850000000001,5.0,2.0,3.0,4.0,0.0,30.0,0.0,0.0,0.0,0.0,64.07,35.29781087290288,2.847378923087672,42.1577218810798,High,True
A-1748,"1-(2,6,6-trimethylcyclohex-1-en-1-yl)pent-1-en-3-one","InChI=1S/C14H22O/c1-5-12(15)8-9-13-11(2)7-6-10-14(13,3)4/h8-9H,5-7,10H2,1-4H3/b9-8+",LMWNGLDCJDIIBR-CMDGGOBGSA-N,CCC(=O)/C=C/C1=C(C)CCCC1(C)C,-4.187455475,0.4207737446499999,2,G3,206.32899999999992,4.048300000000003,64.77000000000004,15.0,1.0,0.0,1.0,3.0,84.0,0.0,0.0,1.0,1.0,17.07,93.25998339713148,2.8977630167536708,305.3003900253213,Medium,False
A-1770,sodium 2-hydroxybenzoate,"InChI=1S/C7H6O3.Na/c8-6-4-2-1-3-5(6)7(9)10;/h1-4,8H,(H,9,10);/q;+1/p-1",ABBQHOQBGMUPJH-UHFFFAOYSA-M,[Na+].Oc1ccccc1C([O-])=O,-0.1074921693999999,0.4524047572444348,4,G5,160.10399999999996,-3.240299999999998,32.43729999999999,11.0,3.0,1.0,4.0,1.0,52.0,1.0,0.0,0.0,1.0,60.36,85.95973446104132,9.999998370000272e-07,259.6175282804537,High,True
A-1775,"1,3-dichlorobenzene",InChI=1S/C6H4Cl2/c7-5-2-1-3-6(8)4-5/h1-4H,ZPQOPVIELGIULI-UHFFFAOYSA-N,Clc1cccc(Cl)c1,-3.0721598007,0.0337374274553604,3,G5,147.004,2.993400000000001,36.46200000000001,8.0,0.0,0.0,2.0,0.0,42.0,1.0,0.0,0.0,1.0,0.0,58.03793557326031,3.077660437970554,166.38833891467198,High,True
A-1791,propiophenone,"InChI=1S/C9H10O/c1-2-9(10)8-6-4-3-5-7-8/h3-7H,2H2,1H3",KRIOVPPHQSLHCZ-UHFFFAOYSA-N,CCC(=O)c1ccccc1,-2.0485000681,0.11090003405,2,G3,134.17799999999997,2.2793,41.063500000000026,10.0,1.0,0.0,1.0,2.0,52.0,1.0,0.0,0.0,1.0,17.07,60.68775156273055,2.8526279288191434,213.42969243757128,High,True
A-1792,4-tert-butylbenzaldehyde,"InChI=1S/C11H14O/c1-11(2,3)10-6-4-9(8-12)5-7-10/h4-8H,1-3H3",OTXINXDGSUFPNU-UHFFFAOYSA-N,CC(C)(C)c1ccc(C=O)cc1,-3.1309552762,0.0512123497323335,3,G5,162.23199999999997,2.796600000000001,50.529500000000034,12.0,1.0,0.0,1.0,1.0,64.0,1.0,0.0,0.0,1.0,17.07,73.41763579152378,2.99883701071891,264.0507411272592,High,True
A-1805,"zinc(2+) ion bis(2,2-dimethyloctanoate)","InChI=1S/2C10H20O2.Zn/c2*1-9(2,3)7-10(4,5)6-8(11)12;/h2*6-7H2,1-5H3,(H,11,12);/q;;+2/p-2",JUODUXKPGONLIM-UHFFFAOYSA-L,[Zn++].CC(C)(C)CC(C)(C)CC([O-])=O.CC(C)(C)CC(C)(C)CC([O-])=O,-3.5342880969,0.3966537261500003,2,G3,407.91000000000025,3.1751000000000023,94.95400000000008,25.0,4.0,0.0,5.0,6.0,144.0,0.0,0.0,0.0,0.0,80.25999999999999,167.47382210193877,-3.723076836639056e-07,372.392540428956,High,True
A-1809,"1,3-benzothiazole-2-thiol","InChI=1S/C7H5NS2/c9-7-8-5-3-1-2-4-6(5)10-7/h1-4H,(H,8,9)",YXIWHUQXZSMYRE-UHFFFAOYSA-N,S=C1Nc2ccccc2S1,-3.1515048921,0.4617320647783434,4,G5,167.25799999999998,2.95889,47.00970000000001,10.0,2.0,1.0,3.0,0.0,50.0,2.0,0.0,0.0,2.0,15.79,67.33185914979505,3.007619546803024,362.89835341124046,High,True
A-1816,prop-1-en-2-ylbenzene,"InChI=1S/C9H10/c1-8(2)9-6-4-3-5-7-9/h3-7H,1H2,2H3",XYLMUPLGERFSHI-UHFFFAOYSA-N,CC(=C)c1ccccc1,-3.0080823215,0.3385306355058569,3,G5,118.17899999999996,2.7197000000000005,41.15000000000002,9.0,0.0,0.0,0.0,1.0,46.0,1.0,0.0,0.0,1.0,0.0,55.83662643050253,2.981454614041131,196.53811204568345,High,True
A-1817,2-methoxy-4-(prop-2-en-1-yl)phenol,"InChI=1S/C10H12O2/c1-3-4-8-5-6-9(11)10(7-8)12-2/h3,5-7,11H,1,4H2,2H3",RRAFCDWBNXTKKO-UHFFFAOYSA-N,COc1cc(CC=C)ccc1O,-2.1531779235,0.2954889617499999,2,G3,164.204,2.1293,48.55980000000003,12.0,2.0,1.0,2.0,3.0,64.0,1.0,0.0,0.0,1.0,29.46,72.10934752660204,2.95955954722478,279.16711032401867,High,True
A-1819,"1-Octadecanol, phosphate, potassium salt","InChI=1S/C18H38.K.H3O4P/c1-3-5-7-9-11-13-15-17-18-16-14-12-10-8-6-4-2;;1-5(2,3)4/h3-18H2,1-2H3;;(H3,1,2,3,4)",HFQLXRQLKSICDE-UHFFFAOYSA-N,[K].CCCCCCCCCCCCCCCCCC.O[P](O)(O)=O,-3.5298030639,0.3181913527848294,5,G5,391.594,5.958400000000009,105.23690000000006,24.0,1.0,3.0,6.0,15.0,143.0,0.0,0.0,0.0,0.0,77.75999999999999,192.80397475252687,-6.392104220788277e-07,235.13865282819253,High,True
A-1829,"1,1,2,3,3-pentamethyl-2,3,4,5,6,7-hexahydro-1H-inden-4-one","InChI=1S/C14H22O/c1-9-13(2,3)10-7-6-8-11(15)12(10)14(9,4)5/h9H,6-8H2,1-5H3",MIZGSAALSYARKU-UHFFFAOYSA-N,CC1C(C)(C)C2=C(C(=O)CCC2)C1(C)C,-3.2653422506,0.1790682653000002,2,G3,206.32899999999992,3.738100000000003,62.61000000000005,15.0,1.0,0.0,1.0,0.0,84.0,0.0,0.0,2.0,2.0,17.07,92.9437552757865,2.596666247526767,344.35020121146897,High,True
A-1832,2-(4-{2-[4-(2-hydroxyethoxy)phenyl]propan-2-yl}phenoxy)ethan-1-ol,"InChI=1S/C19H24O4/c1-19(2,15-3-7-17(8-4-15)22-13-11-20)16-5-9-18(10-6-16)23-14-12-21/h3-10,20-21H,11-14H2,1-2H3",UUAGPGQUHZVJBQ-UHFFFAOYSA-N,CC(C)(c1ccc(OCCO)cc1)c2ccc(OCCO)cc2,-3.4517905533999995,0.3982970949499997,2,G3,316.39700000000005,2.754700000000001,90.17360000000004,23.0,4.0,2.0,4.0,8.0,124.0,2.0,0.0,0.0,2.0,58.92,136.8586500897431,2.1292981493188137,534.2716070979034,High,True
A-1835,"7-{[(2S,3R,4S,5S,6R)-4,5-dihydroxy-6-(hydroxymethyl)-3-{[(2S,3R,4R,5R,6S)-3,4,5-trihydroxy-6-methyloxan-2-yl]oxy}oxan-2-yl]oxy}-5-hydroxy-2-(4-hydroxyphenyl)-3,4-dihydro-2H-1-benzopyran-4-one","InChI=1S/C27H32O14/c1-10-20(32)22(34)24(36)26(37-10)41-25-23(35)21(33)18(9-28)40-27(25)38-13-6-14(30)19-15(31)8-16(39-17(19)7-13)11-2-4-12(29)5-3-11/h2-7,10,16,18,20-30,32-36H,8-9H2,1H3/t10-,16-,18+,20-,21+,22+,23-,24+,25+,26-,27+/m0/s1",DFPMSGMNTNDNHN-ZPHOTFPESA-N,C[C@@H]1O[C@@H](O[C@@H]2[C@@H](O)[C@H](O)[C@@H](CO)O[C@H]2Oc3cc(O)c4C(=O)C[C@H](Oc4c3)c5ccc(O)cc5)[C@H](O)[C@H](O)[C@H]1O,-2.7224387153,0.1712113404500002,2,G3,580.5390000000004,-1.1652000000000018,134.14690000000002,41.0,14.0,8.0,14.0,6.0,224.0,2.0,2.0,3.0,5.0,225.06,233.02825384606865,1.410692039082298,1237.2639755717807,High,True
A-1837,magnesium(2+) ion carbonate,"InChI=1S/CH2O3.Mg/c2-1(3)4;/h(H2,2,3,4);/q;+2/p-2",ZLNQQNXFFQJAID-UHFFFAOYSA-L,[Mg++].[O-]C([O-])=O,-2.8845018574,0.2688010010499999,2,G3,84.31299999999999,-2.8278000000000003,11.15,5.0,3.0,0.0,4.0,0.0,24.0,0.0,0.0,0.0,0.0,63.19,44.7591364403616,0.0,29.87430298092722,High,True
A-1839,"1,2-bis(2-methylpropyl) benzene-1,2-dicarboxylate","InChI=1S/C16H22O4/c1-11(2)9-19-15(17)13-7-5-6-8-14(13)16(18)20-10-12(3)4/h5-8,11-12H,9-10H2,1-4H3",MGWAVDBGNNKXQV-UHFFFAOYSA-N,CC(C)COC(=O)c1ccccc1C(=O)OCC(C)C,-4.3838902648,0.2227868881566086,5,G5,278.348,3.3122000000000025,76.68300000000005,20.0,4.0,0.0,4.0,6.0,110.0,1.0,0.0,0.0,1.0,52.60000000000001,119.63095892256436,2.815925753105677,420.2996060326553,Medium,False
A-1840,"2-[({2,2,4-trimethyl-6-[({2-[(2-methylprop-2-enoyl)oxy]ethoxy}carbonyl)amino]hexyl}carbamoyl)oxy]ethyl 2-methylprop-2-enoate 2-[({2,4,4-trimethyl-6-[({2-[(2-methylprop-2-enoyl)oxy]ethoxy}carbonyl)amino]hexyl}carbamoyl)oxy]ethyl 2-methylprop-2-enoate","InChI=1S/C23H38N2O8/c1-16(2)19(26)30-10-12-32-21(28)24-9-8-18(5)14-23(6,7)15-25-22(29)33-13-11-31-20(27)17(3)4/h18H,1,3,8-15H2,2,4-7H3,(H,24,28)(H,25,29)",UEKHZPDUBLCUHN-UHFFFAOYSA-N,CC(CCNC(=O)OCCOC(=O)C(C)=C)CC(C)(C)CNC(=O)OCCOC(=O)C(C)=C,-4.619923834,0.0056506284000001,2,G3,470.5630000000003,3.119900000000002,122.42640000000009,33.0,8.0,2.0,10.0,15.0,188.0,0.0,0.0,0.0,0.0,129.26,195.5887651656051,3.962106145181529,702.5749607742148,Low,False