ID,Name,InChI,InChIKey,SMILES,Solubility,SD,Ocurrences,Group,MolWt,MolLogP,MolMR,HeavyAtomCount,NumHAcceptors,NumHDonors,NumHeteroatoms,NumRotatableBonds,NumValenceElectrons,NumAromaticRings,NumSaturatedRings,NumAliphaticRings,RingCount,TPSA,LabuteASA,BalabanJ,BertzCT,bin,is_sol
A-2833,trisodium 2-[bis(carboxylatomethyl)amino]acetate,"InChI=1S/C6H9NO6.3Na/c8-4(9)1-7(2-5(10)11)3-6(12)13;;;/h1-3H2,(H,8,9)(H,10,11)(H,12,13);;;/q;3*+1/p-3",DZCAZXAJPZCSCU-UHFFFAOYSA-K,[Na+].[Na+].[Na+].[O-]C(=O)CN(CC([O-])=O)CC([O-])=O,0.3961032361,0.0811514872999999,2,G3,257.0849999999999,-14.449900000000005,31.46099999999999,16.0,7.0,0.0,10.0,6.0,74.0,0.0,0.0,0.0,0.0,123.63,158.43126169487115,-2.3999997095000365e-07,198.2646625064904,High,True
A-2840,"sodium 2-amino-4-nitrophenol benzene-1,3-diol 2-amino-4-nitro-6-sulfobenzen-1-olate iron sodium hydride","InChI=1S/C6H6N2O6S.C6H6N2O3.C6H6O2.Fe.2Na/c7-4-1-3(8(10)11)2-5(6(4)9)15(12,13)14;7-5-3-4(8(10)11)1-2-6(5)9;7-5-2-1-3-6(8)4-5;;;/h1-2,9H,7H2,(H,12,13,14);1-3,9H,7H2;1-4,7-8H;;;/q;;;;;+1/p-1",KABLUZZLSKUJBA-UHFFFAOYSA-M,[Na].[Na+].[Fe].Nc1cc(ccc1O)[N+]([O-])=O.Nc2cc(cc(c2O)[S]([O-])(=O)=O)[N+]([O-])=O.Oc3cccc(O)c3,-0.9940566873,0.0203502746895309,3,G5,599.2430000000003,-1.6121999999999983,121.83599999999998,37.0,13.0,6.0,19.0,3.0,191.0,3.0,0.0,0.0,3.0,276.44,263.7709772141779,-4.6945743428140846e-07,1313.772994538374,High,True
A-2849,lithium(1+) ion chloride,InChI=1S/ClH.Li/h1H;/q;+1/p-1,KWGKDLIKAYFUFQ-UHFFFAOYSA-M,[Li+].[Cl-],1.1343979721,0.07999205395,2,G3,42.394000000000005,-5.992,0.0,2.0,0.0,0.0,2.0,0.0,8.0,0.0,0.0,0.0,0.0,0.0,31.81913653838555,0.0,2.0,High,True
A-2852,2-methylpropyl (2R)-2-hydroxypropanoate,"InChI=1S/C7H14O3/c1-5(2)4-10-7(9)6(3)8/h5-6,8H,4H2,1-3H3/t6-/m1/s1",WBPAQKQBUKYCJS-ZCFIWIBFSA-N,CC(C)COC(=O)[C@@H](C)O,-0.4128573351,0.0367650344,2,G3,146.18599999999998,0.5664,37.4778,10.0,3.0,1.0,3.0,3.0,60.0,0.0,0.0,0.0,0.0,46.53,60.99820479595584,3.4037533061532064,107.41884680991984,High,True
A-2860,tetrasodium 2-({2-[bis(carboxylatomethyl)amino]ethyl}(carboxylatomethyl)amino)acetate,"InChI=1S/C10H16N2O8.4Na/c13-7(14)3-11(4-8(15)16)1-2-12(5-9(17)18)6-10(19)20;;;;/h1-6H2,(H,13,14)(H,15,16)(H,17,18)(H,19,20);;;;/q;4*+1/p-4",UEUXEKPTXMALOB-UHFFFAOYSA-J,[Na+].[Na+].[Na+].[Na+].[O-]C(=O)CN(CCN(CC([O-])=O)CC([O-])=O)CC([O-])=O,0.1189898767999999,0.0322289946,2,G3,380.1720000000002,-19.393999999999984,52.90800000000002,24.0,10.0,0.0,14.0,11.0,114.0,0.0,0.0,0.0,0.0,167.0,227.02001929761263,-3.008332710291799e-07,331.0544191722806,High,True
A-2863,chromium(3+) ion trifluoride,InChI=1S/Cr.3F,QZEZRQVFRMLNPK-UHFFFAOYSA-N,[F].[F].[F].[Cr],-0.3384166482,0.2259947320533064,3,G5,108.99,1.2581000000000002,3.3240000000000003,4.0,0.0,0.0,4.0,0.0,27.0,0.0,0.0,0.0,0.0,0.0,32.42797964509352,-0.0,3.2451124978365318,High,True
A-2879,"disodium 2-amino-4,6-dinitrophenol 4-nitroaniline 8-{2-[(1E)-2-oxido-4-oxocyclohexa-2,5-dien-1-ylidene]hydrazin-1-yl}-3,6-disulfonaphthalen-1-olate iron","InChI=1S/C16H12N2O9S2.C6H5N3O5.C6H6N2O2.Fe.2Na/c19-9-1-2-12(14(20)5-9)17-18-13-6-10(28(22,23)24)3-8-4-11(29(25,26)27)7-15(21)16(8)13;7-4-1-3(8(11)12)2-5(6(4)10)9(13)14;7-5-1-3-6(4-2-5)8(9)10;;;/h1-7,18,20-21H,(H,22,23,24)(H,25,26,27);1-2,10H,7H2;1-4H,7H2;;;/q;;;;2*+1/p-2/b17-12+;;;;;",VKGDLXPXGUTJRE-JEZQZZQZSA-L,[Na+].[Na+].[Fe].Nc1ccc(cc1)[N+]([O-])=O.Nc2cc(cc(c2O)[N+]([O-])=O)[N+]([O-])=O.OC/3=CC(=O)C=CC3=N/Nc4cc(cc5cc(cc(O)c45)[S]([O-])(=O)=O)[S]([O-])(=O)=O,-1.3075465248,0.1125110250425234,3,G5,877.4680000000003,-3.324399999999993,180.7925,56.0,20.0,6.0,28.0,7.0,286.0,4.0,0.0,1.0,5.0,398.00999999999993,368.3214779844862,9.343800043347088e-07,2497.2704920377605,High,True
A-2885,"(2,5-dioxoimidazolidin-4-yl)urea","InChI=1S/C4H6N4O3/c5-3(10)6-1-2(9)8-4(11)7-1/h1H,(H3,5,6,10)(H2,7,8,9,11)",POJWUDADGALRAB-UHFFFAOYSA-N,NC(=O)NC1NC(=O)NC1=O,-1.5087824856999998,0.0518688402878104,3,G5,158.117,-2.1798,33.18149999999999,11.0,3.0,4.0,7.0,1.0,60.0,0.0,1.0,1.0,1.0,113.32,61.30228976545828,2.534438673083989,225.37706033746232,High,True
A-2904,2-[(carbamoylmethyl)(carboxymethyl)amino]acetic acid,"InChI=1S/C6H10N2O5/c7-4(9)1-8(2-5(10)11)3-6(12)13/h1-3H2,(H2,7,9)(H,10,11)(H,12,13)/p-1",QZTKDVCDBIDYMD-UHFFFAOYSA-M,NC(=O)C[NH+](CC([O-])=O)CC([O-])=O,-1.7635818574000002,0.0458068365999999,2,G3,189.147,-6.1435999999999975,34.77210000000001,13.0,5.0,2.0,7.0,6.0,74.0,0.0,0.0,0.0,0.0,127.79,73.73671977155199,4.095996370610992,189.02540087437825,High,True
A-2907,3-[(2-carboxyethyl)sulfanyl]propanoic acid,"InChI=1S/C6H10O4S/c7-5(8)1-3-11-4-2-6(9)10/h1-4H2,(H,7,8)(H,9,10)",ODJQKYXPKWQWNK-UHFFFAOYSA-N,OC(=O)CCSCCC(O)=O,-0.7991431977,0.05922159885,2,G3,178.209,0.669,41.83060000000002,11.0,3.0,2.0,5.0,6.0,64.0,0.0,0.0,0.0,0.0,74.6,68.59858332965739,3.0256083367235656,129.51770940319489,High,True
A-2908,N-Butylphosphorothioic triamide,"InChI=1S/C4H14N3PS/c1-2-3-4-7-8(5,6)9/h2-4H2,1H3,(H5,5,6,7,9)",HEPPIYNOUFWEPP-UHFFFAOYSA-N,CCCCN[P](N)(N)=S,-0.7730339165000001,0.4348251084845003,3,G5,167.218,0.518,45.57050000000001,9.0,1.0,3.0,5.0,4.0,56.0,0.0,0.0,0.0,0.0,64.07,61.3522664047582,3.1817722494383824,110.38037532843028,High,True
A-2927,4-methylphenol,"InChI=1S/C7H8O/c1-6-2-4-7(8)5-3-6/h2-5,8H,1H3",IWDCLRJOBJJRNH-UHFFFAOYSA-N,Cc1ccc(O)cc1,-0.7015479053,0.0295970586919949,4,G5,108.14,1.7006199999999998,32.843799999999995,8.0,1.0,1.0,1.0,0.0,42.0,1.0,0.0,0.0,1.0,20.23,48.59057898608958,3.0324555320336755,143.24662946459569,High,True
A-2937,N-ethyl(propan-2-yloxy)carbothioamide,"InChI=1S/C6H13NOS/c1-4-7-6(9)8-5(2)3/h5H,4H2,1-3H3,(H,7,9)",KIACEOHPIRTHMI-UHFFFAOYSA-N,CCNC(=S)OC(C)C,-1.7447887835,0.0240229186,2,G3,147.243,1.3058,42.49570000000002,9.0,2.0,1.0,3.0,2.0,54.0,0.0,0.0,0.0,0.0,21.26,61.58614926013238,3.2711920488970017,93.05865002596164,High,True
A-2949,disodium sulfate,"InChI=1S/2Na.H2O4S/c;;1-5(2,3)4/h;;(H2,1,2,3,4)/q2*+1;/p-2",PMZURENOXWZQFD-UHFFFAOYSA-L,[Na+].[Na+].[O-][S]([O-])(=O)=O,0.1263337648,0.1928663457827834,3,G5,142.04299999999998,-7.329999999999999,10.4746,7.0,4.0,0.0,7.0,0.0,32.0,0.0,0.0,0.0,0.0,80.25999999999999,85.83298179715149,-7.999999835000003e-08,92.8582023226588,High,True
A-2951,"2,2-bis(bromomethyl)propane-1,3-diol","InChI=1S/C5H10Br2O2/c6-1-5(2-7,3-8)4-9/h8-9H,1-4H2",CHUGKEQJSLOLHL-UHFFFAOYSA-N,OCC(CO)(CBr)CBr,-1.1304017512,0.1460008755999999,2,G3,261.941,0.7471999999999999,44.19260000000003,9.0,2.0,2.0,4.0,4.0,56.0,0.0,0.0,0.0,0.0,40.46,71.52258220109073,3.824684203207495,55.84847143196431,High,True
A-2962,(2S)-2-aminopropanoic acid,"InChI=1S/C3H7NO2/c1-2(4)3(5)6/h2H,4H2,1H3,(H,5,6)",QNAYBMKLOCPYGJ-UHFFFAOYSA-N,CC(N)C(O)=O,0.2678986156,0.0239493078,2,G3,89.09399999999998,-0.5817999999999999,21.285200000000003,6.0,2.0,2.0,3.0,1.0,36.0,0.0,0.0,0.0,0.0,63.32,35.76478180587526,3.2575861612334887,59.813537528125096,High,True
A-2969,cyclohexanone oxime,"InChI=1S/C6H11NO/c8-7-6-4-2-1-3-5-6/h8H,1-5H2",VEZUQRBDRNJBJY-UHFFFAOYSA-N,ON=C1CCCCC1,-0.8495729560999999,0.0327818710276142,3,G5,113.16,1.7807,32.30649999999999,8.0,2.0,1.0,2.0,0.0,46.0,0.0,1.0,1.0,1.0,32.59,49.20172518381748,2.3318756492984862,90.70165766734146,High,True
A-2971,(2S)-pyrrolidine-2-carboxylic acid,"InChI=1S/C5H9NO2/c7-5(8)4-2-1-3-6-4/h4,6H,1-3H2,(H,7,8)",ONIBWKKTOPOVIA-UHFFFAOYSA-N,OC(=O)C1CCCN1,1.1291356492,0.466957588096195,3,G5,115.13200000000002,-0.177,28.660499999999992,8.0,2.0,2.0,3.0,1.0,46.0,0.0,1.0,1.0,1.0,49.33,47.69880636773457,2.34993673877678,96.6017921972316,High,True
A-2972,calcium bis(phosphinate),"InChI=1S/Ca.2HO2P/c;2*1-3-2/h;2*(H,1,2)/q+2;;/p-2",LITFOGPYONJRNO-UHFFFAOYSA-L,[Ca++].[O-]P=O.[O-]P=O,-0.0326449205,0.0594819129,2,G3,166.022,-1.274,20.967,7.0,4.0,0.0,7.0,0.0,36.0,0.0,0.0,0.0,0.0,80.25999999999999,73.49733556503611,-3.9999999812500013e-08,30.671034463057104,High,True
A-2982,dilithium(1+) ion carbonate,"InChI=1S/CH2O3.2Li/c2-1(3)4;;/h(H2,2,3,4);;/q;2*+1/p-2",XGZVUEUWXADBQD-UHFFFAOYSA-L,[Li+].[Li+].[O-]C([O-])=O,-0.7546423143000001,0.0948320330999999,2,G3,73.89,-8.439,5.396,6.0,3.0,0.0,5.0,0.0,24.0,0.0,0.0,0.0,0.0,63.19,59.084371684130176,-4.4999999250000016e-08,31.77443751081734,High,True
A-2993,butanedinitrile,InChI=1S/C4H4N2/c5-3-1-2-4-6/h1-2H2,IAHFWCOBPZCAEA-UHFFFAOYSA-N,N#CCCC#N,0.1752408894,0.0123212194999999,2,G3,80.09,0.81376,20.459999999999997,6.0,2.0,0.0,2.0,1.0,30.0,0.0,0.0,0.0,0.0,47.58,36.6192367339568,2.783540827789881,79.09616281328597,High,True
A-3000,xylenesulphonic acid,"InChI=1S/C8H10O3S/c1-6-4-3-5-8(7(6)2)12(9,10)11/h3-5H,1-2H3,(H,9,10,11)",ZZXDRXVIRVJQBT-UHFFFAOYSA-N,Cc1cccc(c1C)[S](O)(=O)=O,0.7779988658,0.0753554648921331,4,G5,186.232,1.55014,45.73060000000002,12.0,2.0,1.0,4.0,1.0,66.0,1.0,0.0,0.0,1.0,54.37,71.78992335833081,3.4684785345646363,392.7640417990124,High,True
A-3003,potassium trihydrogen diethanedioate,"InChI=1S/2C2H2O4.K/c2*3-1(4)2(5)6;/h2*(H,3,4)(H,5,6);",INYYFFJLLWWJOT-UHFFFAOYSA-N,[K].OC(=O)C(O)=O.OC(=O)C(O)=O,-0.3073494259,0.3177418734,2,G3,219.166,-2.0696,36.29719999999999,13.0,4.0,4.0,9.0,0.0,69.0,0.0,0.0,0.0,0.0,149.2,113.58549662887036,-1.4285714138775514e-07,172.1839163704497,High,True
A-3025,3-chloro-2-methylaniline,"InChI=1S/C7H8ClN/c1-5-6(8)3-2-4-7(5)9/h2-4H,9H2,1H3",ZUVPLKVDZNDZCM-UHFFFAOYSA-N,Cc1c(N)cccc1Cl,-2.1510663204,0.3266062569,2,G3,141.60099999999997,2.23062,40.60140000000001,9.0,1.0,1.0,2.0,0.0,48.0,1.0,0.0,0.0,1.0,26.02,59.43950215778796,3.2478347337367035,199.9061775999341,High,True
A-3043,"3,5,5-trimethylhexanal","InChI=1S/C9H18O/c1-8(5-6-10)7-9(2,3)4/h6,8H,5,7H2,1-4H3",WTPYRCJDOZVZON-UHFFFAOYSA-N,CC(CC=O)CC(C)(C)C,-2.6759065954,0.2594289910797391,3,G5,142.242,2.6477000000000013,43.917000000000016,10.0,1.0,0.0,1.0,3.0,60.0,0.0,0.0,0.0,0.0,17.07,63.82031004304616,3.5643933326870947,99.78611874917878,High,True
A-3047,"1,2-dichlorobenzene",InChI=1S/C6H4Cl2/c7-5-3-1-2-4-6(5)8/h1-4H,RFFLAFLAYFXFSW-UHFFFAOYSA-N,Clc1ccccc1Cl,-3.0533857998,0.0797357612202693,8,G5,147.00399999999996,2.9934000000000003,36.46200000000001,8.0,0.0,0.0,2.0,0.0,42.0,1.0,0.0,0.0,1.0,0.0,58.03793557326031,3.134861511345448,162.63833891467198,High,True
A-3055,methane dimolybdenum,InChI=1S/CH4.2Mo/h1H4;;,JAGQSESDQXCFCH-UHFFFAOYSA-N,C.[Mo].[Mo],-3.4202754414,0.4092229226500004,2,G3,207.923,0.6311,6.731,3.0,0.0,0.0,2.0,0.0,20.0,0.0,0.0,0.0,0.0,0.0,49.51542721139212,-0.0,2.754887502163468,High,True
A-3068,"2,6,10,15,19,23-hexamethyltetracosane","InChI=1S/C30H62/c1-25(2)15-11-19-29(7)23-13-21-27(5)17-9-10-18-28(6)22-14-24-30(8)20-12-16-26(3)4/h25-30H,9-24H2,1-8H3",PRAKJMSDJKAYCZ-UHFFFAOYSA-N,CC(C)CCCC(C)CCCC(C)CCCCC(C)CCCC(C)CCCC(C)C,-5.1490404299,0.3203787894442638,3,G5,422.8260000000003,11.08439999999999,140.20399999999998,30.0,0.0,0.0,0.0,21.0,182.0,0.0,0.0,0.0,0.0,0.0,193.3225723453312,3.5365620101598387,307.9474732050231,Low,False
A-3083,2-methylprop-2-enoic acid,"InChI=1S/C4H6O2/c1-3(2)4(5)6/h1H2,2H3,(H,5,6)",CERQOIWHTDAKMF-UHFFFAOYSA-N,CC(=C)C(O)=O,0.0562733679,0.02093668395,2,G3,86.08999999999999,0.6471,22.449799999999996,6.0,1.0,1.0,2.0,1.0,34.0,0.0,0.0,0.0,0.0,37.3,36.10023019107489,3.5677034550432034,71.5488750216347,High,True
A-3088,sodium hydrogen carbonate,"InChI=1S/CH2O3.Na/c2-1(3)4;/h(H2,2,3,4);/q;+1/p-1",UIIMBOGNXHQVGW-UHFFFAOYSA-M,[Na+].OC([O-])=O,0.0579609271,0.0288487469541642,3,G5,84.00599999999999,-4.1083,8.0248,5.0,2.0,1.0,4.0,0.0,24.0,0.0,0.0,0.0,0.0,60.36,50.90264025497728,0.0,29.87430298092722,High,True
A-3089,2-[(2-hydroxyethyl)amino]ethan-1-ol,"InChI=1S/C4H11NO2/c6-3-1-5-2-4-7/h5-7H,1-4H2",ZBCBWPMODOFKDW-UHFFFAOYSA-N,OCCNCCO,0.9577927941,0.01020360295,2,G3,105.137,-1.4393999999999998,27.041299999999996,7.0,3.0,3.0,3.0,4.0,44.0,0.0,0.0,0.0,0.0,52.49,42.97240705901943,2.447472887876344,28.870765403276856,High,True
A-3098,1-methoxy-2-(2-methoxyethoxy)ethane,"InChI=1S/C6H14O3/c1-7-3-5-9-6-4-8-2/h3-6H2,1-2H3",SBZXBUIDTXKZTM-UHFFFAOYSA-N,COCCOCCOC,0.8454562496,0.0134218751999999,2,G3,134.175,0.2958,34.57099999999999,9.0,3.0,0.0,3.0,6.0,56.0,0.0,0.0,0.0,0.0,27.69,55.90459728833323,2.595082706793886,41.56763141529687,High,True
A-3099,(2E)-but-2-enoic acid,"InChI=1S/C4H6O2/c1-2-3-4(5)6/h2-3H,1H3,(H,5,6)/b3-2+",LDHQCZJRKDOVOX-NSCUHMNNSA-N,C/C=C/C(O)=O,0.0381751458,0.0193375729,2,G3,86.08999999999999,0.6471,22.449799999999996,6.0,1.0,1.0,2.0,1.0,34.0,0.0,0.0,0.0,0.0,37.3,36.10023019107489,3.301627871993482,73.61727061434749,High,True
A-3117,dipotassium carbonate,"InChI=1S/CH2O3.K/c2-1(3)4;/h(H2,2,3,4);/q;+1/p-1",TYJJADVDDVDEDZ-UHFFFAOYSA-M,[K+].OC([O-])=O,0.9537476957,0.05037667605,2,G3,100.114,-4.1083,8.0248,5.0,2.0,1.0,4.0,0.0,24.0,0.0,0.0,0.0,0.0,60.36,71.41180532762793,0.0,29.87430298092722,High,True
A-3123,4-methylaniline,"InChI=1S/C7H9N/c1-6-2-4-7(8)5-3-6/h2-5H,8H2,1H3",RZXMPPFPUUCRFN-UHFFFAOYSA-N,Cc1ccc(N)cc1,-1.0477452605,0.4262053018910804,4,G5,107.156,1.5772199999999998,35.5914,8.0,1.0,1.0,1.0,0.0,42.0,1.0,0.0,0.0,1.0,26.02,49.13623593090628,3.0324555320336755,143.24662946459569,High,True
A-3132,4-hydroxy-3-methoxybenzaldehyde,"InChI=1S/C8H8O3/c1-11-8-4-6(5-9)2-3-7(8)10/h2-5,10H,1H3",MWOOGOJBHIARFG-UHFFFAOYSA-N,COc1cc(C=O)ccc1O,-1.2280265929,0.04356329645,2,G3,152.14899999999997,1.2132999999999998,40.046300000000016,11.0,3.0,1.0,3.0,2.0,58.0,1.0,0.0,0.0,1.0,46.53,64.23058843003683,3.116164133858052,268.03972257956417,High,True
A-3133,dibromomethane,InChI=1S/CH2Br2/c2-1-3/h1H2,FJBFPHVGVWTDIP-UHFFFAOYSA-N,BrCBr,-1.2858947125,0.0606473562499999,2,G3,173.83499999999998,1.7337,22.721,3.0,0.0,0.0,2.0,0.0,20.0,0.0,0.0,0.0,0.0,0.0,36.47434623911227,1.6329931618554523,2.754887502163468,High,True
A-3144,1-[(2-hydroxypropyl)amino]propan-2-ol,"InChI=1S/C6H15NO2/c1-5(8)3-7-4-6(2)9/h5-9H,3-4H2,1-2H3",LVTYICIALWPMFW-UHFFFAOYSA-N,CC(O)CNCC(C)O,0.815044373,0.1750850346950051,3,G5,133.191,-0.6623999999999999,36.2313,9.0,3.0,3.0,3.0,4.0,56.0,0.0,0.0,0.0,0.0,52.49,55.70229128781264,2.914658625512464,56.07820003461549,High,True
A-3149,2-ethyloxirane,"InChI=1S/C4H8O/c1-2-4-3-5-4/h4H,2-3H2,1H3",RBACIKXCRWGCBB-UHFFFAOYSA-N,CCC1CO1,0.080542298,0.0898962509941771,3,G5,72.107,0.7952,20.030999999999995,5.0,1.0,0.0,1.0,1.0,30.0,0.0,1.0,1.0,1.0,12.53,31.941791446997023,1.9989394851788975,30.62919048309069,High,True
A-3150,aluminium(3+) ion triformate,"InChI=1S/3CH2O2.Al/c3*2-1-3;/h3*1H,(H,2,3);/q;;;+3/p-3",MJWPFSQVORELDX-UHFFFAOYSA-K,[Al+3].[O-]C=O.[O-]C=O.[O-]C=O,-0.2746003214999999,0.0397586936499999,2,G3,162.033,-5.282499999999999,23.945999999999994,10.0,6.0,0.0,7.0,0.0,54.0,0.0,0.0,0.0,0.0,120.39,67.22157811238725,-2.5714285645408165e-08,49.74860596185444,High,True
A-3151,cyclohexanone,InChI=1S/C6H10O/c7-6-4-2-1-3-5-6/h1-5H2,JHIVVAPYMSGYDF-UHFFFAOYSA-N,O=C1CCCCC1,-0.0573697280999999,0.2577497217905378,3,G5,98.145,1.5196,28.091999999999985,7.0,1.0,0.0,1.0,0.0,40.0,0.0,1.0,1.0,1.0,17.07,43.719652546327126,2.2495440947344707,68.24920506009684,High,True
A-3163,ethyl acetate,"InChI=1S/C4H8O2/c1-3-6-4(2)5/h3H2,1-2H3",XEKOWRVHYACXOJ-UHFFFAOYSA-N,CCOC(C)=O,-0.025404461,0.0167998038184914,3,G5,88.106,0.5694,22.30699999999999,6.0,2.0,0.0,2.0,1.0,36.0,0.0,0.0,0.0,0.0,26.3,37.10914470057002,2.831257109931365,49.50977500432694,High,True
A-3168,sodium 2-chloroacetate,"InChI=1S/C2H3ClO2.Na/c3-1-2(4)5;/h1H2,(H,4,5);/q;+1/p-1",FDRCDNZGSXJAFP-UHFFFAOYSA-M,[Na+].[O-]C(=O)CCl,0.8486241841,0.0072735541,2,G3,116.479,-4.020899999999999,15.727,6.0,2.0,0.0,4.0,1.0,30.0,0.0,0.0,0.0,0.0,40.13,62.77661484405956,0.0,46.81274391313339,High,True
A-3169,azepan-2-one,"InChI=1S/C6H11NO/c8-6-4-2-1-3-5-7-6/h1-5H2,(H,7,8)",JBKVHLHDHHXQEQ-UHFFFAOYSA-N,O=C1CCCCCN1,0.8601209136,0.020571503415687,3,G5,113.16,0.6766000000000001,31.477699999999988,8.0,1.0,1.0,2.0,0.0,46.0,0.0,1.0,1.0,1.0,29.1,49.26951472993517,2.26669651519302,80.52932501298082,High,True
A-3171,sodium nitrite,"InChI=1S/HNO2.Na/c2-1-3;/h(H,2,3);/q;+1/p-1",LPXPTNMVRIOKMN-UHFFFAOYSA-M,[Na+].[O-]N=O,1.0749962334,0.0464069310375796,3,G5,68.99499999999999,-2.7454,9.162,4.0,3.0,0.0,4.0,0.0,18.0,0.0,0.0,0.0,0.0,52.49,45.230712772049365,0.0,13.509775004326936,High,True
A-3174,bis(prop-2-en-1-yl)amine,"InChI=1S/C6H11N/c1-3-5-7-6-4-2/h3-4,7H,1-2,5-6H2",DYUWTXWIYMHBQS-UHFFFAOYSA-N,C=CCNCC=C,-0.0790069571,0.01300347855,2,G3,97.161,0.948,33.26369999999999,7.0,1.0,1.0,1.0,4.0,40.0,0.0,0.0,0.0,0.0,12.03,44.73461771905212,2.679549206552144,49.20035947603791,High,True
A-3190,iodomethane,InChI=1S/CH3I/c1-2/h1H3,INQOMBQAUSQDDS-UHFFFAOYSA-N,CI,-1.2145838492,0.10274845415,2,G3,141.939,1.0512,19.944,2.0,0.0,0.0,1.0,0.0,14.0,0.0,0.0,0.0,0.0,0.0,28.001089148873188,1.0,2.0,High,True
A-3195,Pyromellitic dianhydride,InChI=1S/C10H2O6/c11-7-3-1-4-6(10(14)16-8(4)12)2-5(3)9(13)15-7/h1-2H,ANSXAPJVJOKRDJ-UHFFFAOYSA-N,O=C1OC(=O)c2cc3C(=O)OC(=O)c3cc12,-1.4062217243,0.0067434694500001,2,G3,218.11999999999995,-0.5045999999999998,53.438,16.0,6.0,0.0,6.0,0.0,78.0,3.0,0.0,0.0,3.0,94.56,85.0294791112961,2.7986395701748545,769.6521153807564,High,True
A-3197,"5-methyl-octahydro-2-benzofuran-1,3-dione","InChI=1S/C9H12O3/c1-5-2-3-6-7(4-5)9(11)12-8(6)10/h5-7H,2-4H2,1H3",FKBMTBAXDISZGN-UHFFFAOYSA-N,CC1CCC2C(C1)C(=O)OC2=O,-1.3015260488,0.0267221596,2,G3,168.19199999999998,1.1222,41.09400000000001,12.0,3.0,0.0,3.0,0.0,66.0,0.0,2.0,2.0,2.0,43.370000000000005,71.08371506553836,2.169335366426631,233.92814698224575,High,True
A-3199,calcium bis(2-ethylhexanoate),"InChI=1S/2C8H16O2.Ca/c2*1-3-5-6-7(4-2)8(9)10;/h2*7H,3-6H2,1-2H3,(H,9,10);/q;;+2/p-2",LTPCXXMGKDQPAO-UHFFFAOYSA-L,[Ca++].CCCCC(CC)C([O-])=O.CCCCC(CC)C([O-])=O,-1.5917155587,0.4915508618,2,G3,326.49000000000007,1.5246000000000002,82.38000000000005,21.0,4.0,0.0,5.0,10.0,120.0,0.0,0.0,0.0,0.0,80.25999999999999,159.24649359701166,-2.945454481041324e-07,230.6615312216908,High,True
A-3201,"2,6-dimethylaniline","InChI=1S/C8H11N/c1-6-4-3-5-7(2)8(6)9/h3-5H,9H2,1-2H3",UFFBMTHBGFGIHF-UHFFFAOYSA-N,Cc1cccc(C)c1N,-1.167514488,0.0990080702999999,2,G3,121.183,1.88564,40.32840000000001,9.0,1.0,1.0,1.0,0.0,48.0,1.0,0.0,0.0,1.0,26.02,55.50117804530289,3.2478347337367026,195.55766205433733,High,True
A-3206,"1,3-dimethyl-3,7-dihydro-1H-purine-2,6-dione","InChI=1S/C7H8N4O2/c1-10-5-4(8-3-9-5)6(12)11(2)7(10)13/h3H,1-2H3,(H,8,9)",ZFXYFBGIUFBOJW-UHFFFAOYSA-N,CN1C(=O)N(C)c2nc[nH]c2C1=O,-1.3525852601,0.0169291336,2,G3,180.167,-1.039700000000001,46.57570000000001,13.0,5.0,1.0,6.0,0.0,68.0,2.0,0.0,0.0,2.0,72.68,72.45404341715741,3.21185381303522,574.1705593822571,High,True
A-3209,benzyldimethylamine,"InChI=1S/C9H13N/c1-10(2)8-9-6-4-3-5-7-9/h3-7H,8H2,1-2H3",XXBDWLFCJWSEKW-UHFFFAOYSA-N,CN(C)Cc1ccccc1,-1.2279188258,0.0880594128999999,2,G3,135.20999999999998,1.7482,43.83300000000003,10.0,1.0,0.0,1.0,2.0,54.0,1.0,0.0,0.0,1.0,3.24,62.28606313289016,2.5872871851548136,179.17957141667625,High,True
A-3210,trichloromethane,InChI=1S/CHCl3/c2-1(3)4/h1H,HEDRZPFGACZZDS-UHFFFAOYSA-N,ClC(Cl)Cl,-1.1738343117,0.01821463285,2,G3,119.378,1.9864,21.347,4.0,0.0,0.0,3.0,0.0,26.0,0.0,0.0,0.0,0.0,0.0,39.64904970847457,2.3237900077244498,8.0,High,True
A-3216,"(5R)-5-[(1S)-1,2-dihydroxyethyl]-4-ethoxy-3-hydroxy-5H-furan-2-one","InChI=1S/C8H12O6/c1-2-13-7-5(11)8(12)14-6(7)4(10)3-9/h4,6,9-11H,2-3H2,1H3/t4-,6+/m0/s1",ZGSCRDSBTNQPMS-UJURSFKZSA-N,CCOC1=C(O)C(=O)O[C@@H]1[C@@H](O)CO,0.5809706515999999,0.0662607834962656,3,G5,204.178,-0.9289000000000004,44.25340000000002,14.0,6.0,3.0,6.0,4.0,80.0,0.0,0.0,1.0,1.0,96.22,80.36972545853787,2.83906727642114,258.55711902130685,High,True
A-3218,"1,4-dimethyl (2Z)-but-2-enedioate","InChI=1S/C6H8O4/c1-9-5(7)3-4-6(8)10-2/h3-4H,1-2H3/b4-3-",LDCRTTXIJACKKU-ARJAWSKDSA-N,COC(=O)\C=C/C(=O)OC,-0.2672048758999999,0.0326916517051025,3,G5,144.12599999999998,-0.1114000000000001,33.172,10.0,4.0,0.0,4.0,2.0,56.0,0.0,0.0,0.0,0.0,52.60000000000001,58.42449322672962,3.7526030864834095,141.13075145540293,High,True
A-3250,methanamine,"InChI=1S/CH5N/c1-2/h2H2,1H3",BAVYZALUXZFZLV-UHFFFAOYSA-N,CN,1.3686434782,0.0863282609,2,G3,31.058,-0.4251,10.1114,2.0,1.0,1.0,1.0,0.0,14.0,0.0,0.0,0.0,0.0,26.02,14.079141724842266,1.0,2.0,High,True