ID,Name,InChI,InChIKey,SMILES,Solubility,SD,Ocurrences,Group,MolWt,MolLogP,MolMR,HeavyAtomCount,NumHAcceptors,NumHDonors,NumHeteroatoms,NumRotatableBonds,NumValenceElectrons,NumAromaticRings,NumSaturatedRings,NumAliphaticRings,RingCount,TPSA,LabuteASA,BalabanJ,BertzCT,bin,is_sol
A-4285,dibutoxyphosphinic acid,"InChI=1S/C8H19O4P/c1-3-5-7-11-13(9,10)12-8-6-4-2/h3-8H2,1-2H3,(H,9,10)",JYFHYPJRHGVZDY-UHFFFAOYSA-N,CCCCO[P](O)(=O)OCCCC,-1.0872511921,0.0099351624999999,2,G3,210.20999999999995,2.720200000000001,51.54530000000004,13.0,3.0,1.0,5.0,8.0,80.0,0.0,0.0,0.0,0.0,55.760000000000005,79.86478071429066,3.4851076896510653,146.22301638775744,High,True
A-4286,methoxyethene,"InChI=1S/C3H6O/c1-3-4-2/h3H,1H2,2H3",XJRBAMWJDBPFIM-UHFFFAOYSA-N,COC=C,-0.5310304973,0.02845242565,2,G3,58.080000000000005,0.7763,17.206,4.0,1.0,0.0,1.0,1.0,24.0,0.0,0.0,0.0,0.0,9.23,25.89307745394539,2.2968352619191386,17.24511249783653,High,True
A-4291,ethyl 2-chloro-3-oxobutanoate,"InChI=1S/C6H9ClO3/c1-3-10-6(9)5(7)4(2)8/h5H,3H2,1-2H3",RDULEYWUGKOCMR-UHFFFAOYSA-N,CCOC(=O)C(Cl)C(C)=O,-0.9859492465,0.0367116714780029,3,G5,164.588,0.7459,36.955000000000005,10.0,3.0,0.0,4.0,3.0,58.0,0.0,0.0,0.0,0.0,43.370000000000005,64.30381725628867,3.8231925262701543,143.92835504489477,High,True
A-4303,1-methoxypropan-2-yl acetate,"InChI=1S/C6H12O3/c1-5(4-8-3)9-6(2)7/h5H,4H2,1-3H3",LLHKCFNBLRBOGN-UHFFFAOYSA-N,COCC(C)OC(C)=O,0.0830232388,0.1239353854154806,3,G5,132.159,0.5844,33.10399999999999,9.0,3.0,0.0,3.0,3.0,54.0,0.0,0.0,0.0,0.0,35.53,54.95257415887011,3.259231489128124,90.30376252379816,High,True
A-4312,(3Z)-hex-3-en-1-ol,"InChI=1S/C6H12O/c1-2-3-4-5-6-7/h3-4,7H,2,5-6H2,1H3/b4-3-",UFLHIIWVXFIJGU-ARJAWSKDSA-N,CC\C=C/CCO,-0.7858548038,0.0353567304999999,2,G3,100.161,1.335,31.133799999999983,7.0,1.0,1.0,1.0,3.0,42.0,0.0,0.0,0.0,0.0,20.23,44.66859231982434,2.7771492902446893,48.14170945007629,High,True
A-4318,"4,5-bis(hydroxymethyl)-2-methylpyridin-3-ol hydrochloride","InChI=1S/C8H11NO3.ClH/c1-5-8(12)7(4-11)6(3-10)2-9-5;/h2,10-12H,3-4H2,1H3;1H",ZUFQODAHGAHPFQ-UHFFFAOYSA-N,[H+].[Cl-].Cc1ncc(CO)c(CO)c1O,-0.1117125827999999,0.0705062913999999,2,G3,205.641,-2.803279999999999,43.59640000000002,13.0,4.0,3.0,5.0,2.0,74.0,1.0,0.0,0.0,1.0,73.58000000000001,83.76647032226629,0.0,296.160035168718,High,True
A-4321,tetrasodium tris(peroxol) dicarbonate,"InChI=1S/2CH2O3.4Na.3H2O2/c2*2-1(3)4;;;;;3*1-2/h2*(H2,2,3,4);;;;;3*1-2H/q;;4*+1;;;/p-4",MSLRPWGRFCKNIZ-UHFFFAOYSA-J,[Na+].[Na+].[Na+].[Na+].OO.OO.OO.[O-]C([O-])=O.[O-]C([O-])=O,-0.3094338224,0.0302734555879608,3,G5,314.0180000000001,-16.82580000000002,26.5648,18.0,12.0,6.0,16.0,0.0,90.0,0.0,0.0,0.0,0.0,247.76,188.83438391645345,-7.920918352720711e-09,80.07820003461549,High,True
A-4323,amino(imino)methanaminium; cyanosulfanide,"InChI=1S/CH5N3.CHNS/c2-1(3)4;2-1-3/h(H5,2,3,4);3H",ZJYYHGLJYGJLLN-UHFFFAOYSA-N,NC(N)=N.SC#N,1.106488088,0.20348325532271,4,G5,118.165,-0.76415,30.70050000000001,7.0,3.0,4.0,5.0,0.0,40.0,0.0,0.0,0.0,0.0,99.68,47.02280303391605,0.0,78.18080946738405,High,True
A-4324,sodium dodecyl sulfate,"InChI=1S/C12H26O4S.Na/c1-2-3-4-5-6-7-8-9-10-11-12-16-17(13,14)15;/h2-12H2,1H3,(H,13,14,15);/q;+1/p-1",DBMJMQXJHONAFJ-UHFFFAOYSA-M,[Na+].CCCCCCCCCCCCO[S]([O-])(=O)=O,-0.2838814082999999,0.1571149404348425,5,G5,288.385,0.3880999999999996,67.49320000000006,18.0,4.0,0.0,6.0,12.0,104.0,0.0,0.0,0.0,0.0,66.43,134.11819902450975,0.0,254.80302513413508,High,True
A-4325,"3-methyl-2-(2-oxo-1,3-diazinan-1-yl)butanoic acid","InChI=1S/C9H16N2O3/c1-6(2)7(8(12)13)11-5-3-4-10-9(11)14/h6-7H,3-5H2,1-2H3,(H,10,14)(H,12,13)",AFGBRTKUTJQHIP-UHFFFAOYSA-N,CC(C)C(N1CCCNC1=O)C(O)=O,-1.1028619258,0.0086132581855471,3,G5,200.238,0.5108999999999999,50.98350000000003,14.0,2.0,2.0,5.0,3.0,80.0,0.0,1.0,1.0,1.0,69.64000000000001,83.07993059556816,2.753993523721548,240.2115658823984,High,True
A-4334,1-phenoxypropan-2-ol,"InChI=1S/C9H12O2/c1-8(10)7-11-9-5-3-2-4-6-9/h2-6,8,10H,7H2,1H3",IBLKWZIFZMJLFL-UHFFFAOYSA-N,CC(O)COc1ccccc1,-1.0034177306,0.0687911346999999,2,G3,152.19299999999998,1.4462,43.61780000000003,11.0,2.0,1.0,2.0,3.0,60.0,1.0,0.0,0.0,1.0,29.46,66.43400844438968,2.392291165701933,193.97752353949224,High,True
A-4335,2-(1-methylcarbamimidamido)acetic acid,"InChI=1S/C4H9N3O2/c1-7(4(5)6)2-3(8)9/h2H2,1H3,(H3,5,6)(H,8,9)",CVSVTCORWBXHQV-UHFFFAOYSA-N,CN(CC(O)=O)C(N)=N,-0.9387416733,0.00984006985,2,G3,131.135,-1.1037299999999988,32.1799,9.0,2.0,3.0,5.0,2.0,52.0,0.0,0.0,0.0,0.0,90.41,52.574908589740026,3.632432151939845,133.77443751081734,High,True
A-4339,3-methylbutanal,"InChI=1S/C5H10O/c1-5(2)3-4-6/h4-5H,3H2,1-2H3",YGHRJJRRZDOVPD-UHFFFAOYSA-N,CC(C)CC=O,-0.7590833569,0.0557534892115543,3,G5,86.13399999999999,1.2314,25.518999999999988,6.0,1.0,0.0,1.0,2.0,36.0,0.0,0.0,0.0,0.0,17.07,38.36054158545974,2.8141442217770303,39.20310343869658,High,True
A-4356,2-hydroxy-2-phenylacetic acid,"InChI=1S/C8H8O3/c9-7(8(10)11)6-4-2-1-3-5-6/h1-5,7,9H,(H,10,11)",IWYDHOAUDWTVEP-UHFFFAOYSA-N,OC(C(O)=O)c1ccccc1,-0.0321269405,0.077872061049355,5,G5,152.149,0.8046,39.03760000000002,11.0,2.0,2.0,3.0,2.0,58.0,1.0,0.0,0.0,1.0,57.53,63.91127695272596,2.851177890164404,242.77390023702043,High,True
A-4376,4-methylpentan-2-one,"InChI=1S/C6H12O/c1-5(2)4-6(3)7/h5H,4H2,1-3H3",NTIZESTWPVYFNL-UHFFFAOYSA-N,CC(C)CC(C)=O,-0.8514795392,0.2853183834538808,4,G5,100.161,1.6215,30.13599999999998,7.0,1.0,0.0,1.0,2.0,42.0,0.0,0.0,0.0,0.0,17.07,44.72548369985635,3.126006652390634,64.58027134782355,High,True
A-4377,2-methoxyaniline,"InChI=1S/C7H9NO/c1-9-7-5-3-2-4-6(7)8/h2-5H,8H2,1H3",VMPITZXILSNTON-UHFFFAOYSA-N,COc1ccccc1N,-0.9443240129,0.0228879935499999,2,G3,123.155,1.2774,37.4064,9.0,2.0,1.0,2.0,1.0,48.0,1.0,0.0,0.0,1.0,35.25,54.24978116041317,3.0065240073265844,197.86256853719752,High,True
A-4416,2-[(prop-2-en-1-yloxy)methyl]oxirane,"InChI=1S/C6H10O2/c1-2-3-7-4-6-5-8-6/h2,6H,1,3-5H2",LSWYGACWGAICNM-UHFFFAOYSA-N,C=CCOCC1CO1,0.049756882,0.019459033,2,G3,114.144,0.5878,30.755999999999982,8.0,2.0,0.0,2.0,4.0,46.0,0.0,1.0,1.0,1.0,21.76,49.09561787311287,1.803593800954553,76.59772060569361,High,True
A-4430,"1,4-dimethyl butanedioate","InChI=1S/C6H10O4/c1-9-5(7)3-4-6(8)10-2/h3-4H2,1-2H3",MUXOBHXGJLMRAB-UHFFFAOYSA-N,COC(=O)CCC(=O)OC,-0.0752231636,0.3352145146044276,3,G5,146.142,0.1125999999999998,33.26599999999999,10.0,4.0,0.0,4.0,3.0,58.0,0.0,0.0,0.0,0.0,52.60000000000001,59.11409625891388,3.352921516464098,113.70950594454668,High,True
A-4436,"3,4-dihydroxybenzonitrile","InChI=1S/C7H5NO2/c8-4-5-1-2-6(9)7(10)3-5/h1-3,9-10H",NUWHYWYSMAPBHK-UHFFFAOYSA-N,Oc1ccc(cc1O)C#N,-1.0235160951,0.0210045715,2,G3,135.122,0.96948,34.48660000000001,10.0,3.0,2.0,3.0,0.0,50.0,1.0,0.0,0.0,1.0,64.25,57.77739241975432,3.2001177806223087,288.1478479159225,High,True
A-4438,4-aminobenzenesulfonic acid,"InChI=1S/C6H7NO3S/c7-5-1-3-6(4-2-5)11(8,9)10/h1-4H,7H2,(H,8,9,10)",HVBSAKJJOYLTQU-UHFFFAOYSA-N,Nc1ccc(cc1)[S](O)(=O)=O,-1.1412730253,0.0361608049086436,3,G5,173.19299999999998,0.5155000000000001,40.669,11.0,3.0,2.0,5.0,1.0,60.0,1.0,0.0,0.0,1.0,80.39,64.3999298265503,3.2015159310664942,340.5950744935719,High,True
A-4445,"3,5,5-trimethylcyclohex-2-en-1-one","InChI=1S/C9H14O/c1-7-4-8(10)6-9(2,3)5-7/h4H,5-6H2,1-3H3",HJOVHMDZYOCNQW-UHFFFAOYSA-N,CC1=CC(=O)CC(C)(C)C1,-1.0613582209,0.0410933781,2,G3,138.20999999999998,2.3218000000000005,41.77900000000002,10.0,1.0,0.0,1.0,0.0,56.0,0.0,0.0,1.0,1.0,17.07,62.1248758573327,2.798154170206286,186.90494715593388,High,True
A-4446,3-methylaniline,"InChI=1S/C7H9N/c1-6-3-2-4-7(8)5-6/h2-5H,8H2,1H3",JJYPMNFTHPTTDI-UHFFFAOYSA-N,Cc1cccc(N)c1,-0.9508352475,0.0886136460312125,4,G5,107.156,1.5772199999999998,35.59139999999999,8.0,1.0,1.0,1.0,0.0,42.0,1.0,0.0,0.0,1.0,26.02,49.13623593090629,3.077660437970554,164.24662946459569,High,True
A-4450,2-methylbutan-2-ol,"InChI=1S/C5H12O/c1-4-5(2,3)6/h6H,4H2,1-3H3",MSXVEPNJUHWQHW-UHFFFAOYSA-N,CCC(C)(C)O,0.1266596907,0.0270492254186453,4,G5,88.14999999999998,1.1673,26.58879999999999,6.0,1.0,1.0,1.0,1.0,38.0,0.0,0.0,0.0,0.0,20.23,38.99325323761199,3.168489872670569,33.69332843436965,High,True
A-4453,thiourea,"InChI=1S/CH4N2S/c2-1(3)4/h(H4,2,3,4)",UMGDCJDMYOKAJW-UHFFFAOYSA-N,NC(N)=S,0.188516266,0.1022514542918446,6,G5,76.124,-0.8113000000000001,20.972800000000007,4.0,1.0,2.0,3.0,0.0,24.0,0.0,0.0,0.0,0.0,52.04,29.77781266905986,2.8030394876740514,29.019550008653876,High,True
A-4458,"benzene-1,3-diol","InChI=1S/C6H6O2/c7-5-2-1-3-6(8)4-5/h1-4,7-8H",GHMLBKRAJCXXBS-UHFFFAOYSA-N,Oc1cccc(O)c1,1.0034883278,0.1324345936932436,4,G5,110.11199999999998,1.0978,29.771599999999992,8.0,2.0,2.0,2.0,0.0,42.0,1.0,0.0,0.0,1.0,40.46,47.01987062388899,3.077660437970554,166.38833891467198,High,True
A-4464,lithium(1+) ion hydroxide,InChI=1S/Li.H2O/h;1H2/q+1;/p-1,WMFOQBRAJBCJND-UHFFFAOYSA-M,[Li+].[OH-],0.6621234357,0.1843478395030743,3,G5,23.948,-3.1728,1.9358,2.0,1.0,0.0,2.0,0.0,8.0,0.0,0.0,0.0,0.0,30.0,25.14679671425051,0.0,2.0,High,True
A-4468,"1,3-diazinane-2,4,6-trione","InChI=1S/C4H4N2O3/c7-2-1-3(8)6-4(9)5-2/h1H2,(H2,5,6,7,8,9)",HNYOPLTXPVRDBG-UHFFFAOYSA-N,O=C1CC(=O)NC(=O)N1,-1.0486616392,0.1174564797999999,2,G3,128.087,-1.2575,26.2984,9.0,3.0,2.0,5.0,0.0,48.0,0.0,1.0,1.0,1.0,75.27,50.41253688483752,2.636629855902423,140.967556752381,High,True
A-4480,Alpha-Methylglucoside,"InChI=1S/C7H14O6/c1-12-7-6(11)5(10)4(9)3(2-8)13-7/h3-11H,2H2,1H3",HOVAGTYPODGVJG-UHFFFAOYSA-N,COC1OC(CO)C(O)C(O)C1O,0.7452125491,0.22310627455,2,G3,194.183,-2.5673,40.77620000000001,13.0,6.0,4.0,6.0,2.0,78.0,0.0,1.0,1.0,1.0,99.38,75.32709802847776,2.659390479692273,143.0617569290273,High,True
A-4488,disodium 2-[carboxymethyl-[2-[carboxymethyl-(2-oxido-2-oxoethyl)amino]ethyl]amino]acetate,"InChI=1S/C10H16N2O8.2Na/c13-7(14)3-11(4-8(15)16)1-2-12(5-9(17)18)6-10(19)20;;/h1-6H2,(H,13,14)(H,15,16)(H,17,18)(H,19,20);;/q;2*+1/p-2",ZGTMUACCHSMWAC-UHFFFAOYSA-L,[Na+].[Na+].OC(=O)CN(CCN(CC(O)=O)CC([O-])=O)CC([O-])=O,-0.5054187441,0.0138074687980275,3,G5,336.2080000000001,-10.732600000000009,58.16560000000002,22.0,8.0,2.0,12.0,11.0,114.0,0.0,0.0,0.0,0.0,161.34,170.1932200521888,-1.8049992523503188e-06,325.12281476499334,High,True
A-4489,nitromethane,InChI=1S/CH3NO2/c1-2(3)4/h1H3,LYGJENNIWJXYER-UHFFFAOYSA-N,C[N+]([O-])=O,0.2335017655,0.0130991172499999,2,G3,61.040000000000006,-0.1071,12.9184,4.0,2.0,0.0,3.0,0.0,24.0,0.0,0.0,0.0,0.0,43.14,23.39222675032935,2.8030394876740514,29.019550008653876,High,True
A-4490,samarium(3+) ion trinitrate,InChI=1S/3NO3.Sm/c3*2-1(3)4;/q3*-1;+3,YZDZYSPAJSPJQJ-UHFFFAOYSA-N,[Sm+3].[O-][N+]([O-])=O.[O-][N+]([O-])=O.[O-][N+]([O-])=O,0.4860173873,0.1488332279521278,3,G5,336.3720000000001,-0.7173000000000003,31.084200000000006,13.0,9.0,0.0,13.0,0.0,75.0,0.0,0.0,0.0,0.0,198.6,101.19605611259396,-4.4999999833333336e-08,112.40947885963234,High,True
A-4492,3-methylpent-1-yn-3-ol,"InChI=1S/C6H10O/c1-4-6(3,7)5-2/h1,7H,5H2,2-3H3",QXLPXWSKPNOQLE-UHFFFAOYSA-N,CCC(C)(O)C#C,0.0167319924,0.0496535527934499,3,G5,98.14499999999995,0.7806,29.747799999999987,7.0,1.0,1.0,1.0,1.0,40.0,0.0,0.0,0.0,0.0,20.23,44.35742074386788,3.655790926219941,86.84336711741774,High,True
A-4522,4-hydroxybenzenesulfonic acid,"InChI=1S/C6H6O4S/c7-5-1-3-6(4-2-5)11(8,9)10/h1-4,7H,(H,8,9,10)",FEPBITJSIHRMRT-UHFFFAOYSA-N,Oc1ccc(cc1)[S](O)(=O)=O,0.7590091939,0.05995770515,2,G3,174.177,0.6389000000000001,37.921400000000006,11.0,3.0,2.0,5.0,1.0,60.0,1.0,0.0,0.0,1.0,74.6,63.85427288173359,3.2015159310664942,337.3499619957353,High,True
A-4524,"N,N-dimethylacetamide",InChI=1S/C4H9NO/c1-4(6)5(2)3/h1-3H3,FXHOOIRPVKKKFG-UHFFFAOYSA-N,CN(C)C(C)=O,1.0598721633,0.0250639183500001,2,G3,87.12199999999999,0.0945,24.36799999999999,6.0,1.0,0.0,2.0,0.0,36.0,0.0,0.0,0.0,0.0,20.31,37.75543314126651,3.2575861612334887,58.568425030288566,High,True
A-4546,sodium trichloroacetate,"InChI=1S/C2HCl3O2.Na/c3-2(4,5)1(6)7;/h(H,6,7);/q;+1/p-1",SAQSTQBVENFSKT-UHFFFAOYSA-M,[Na+].[O-]C(=O)C(Cl)(Cl)Cl,0.7319628929,0.0395906230499999,2,G3,185.369,-2.8895,25.297,8.0,2.0,0.0,6.0,0.0,42.0,0.0,0.0,0.0,0.0,40.13,83.38314729782289,0.0,87.77443751081735,High,True
A-4557,3-aminobenzenesulfonic acid,"InChI=1S/C6H7NO3S/c7-5-2-1-3-6(4-5)11(8,9)10/h1-4H,7H2,(H,8,9,10)",ZAJAQTYSTDTMCU-UHFFFAOYSA-N,Nc1cccc(c1)[S](O)(=O)=O,-1.2051065795,0.1828179350628199,4,G5,173.19299999999998,0.5155000000000001,40.669,11.0,3.0,2.0,5.0,1.0,60.0,1.0,0.0,0.0,1.0,80.39,64.39992982655029,3.2779105845781125,357.845074493572,High,True
A-4560,2-methoxy-2-methylbutane,"InChI=1S/C6H14O/c1-5-6(2,3)7-4/h5H2,1-4H3",HVZJRWJGKQPSFL-UHFFFAOYSA-N,CCC(C)(C)OC,-0.9795636765,0.0099483734456861,3,G5,102.17699999999998,1.8214,31.37899999999998,7.0,1.0,0.0,1.0,2.0,44.0,0.0,0.0,0.0,0.0,9.23,45.67750682931947,3.360435142696057,42.14170945007629,High,True
A-4572,"2-amino-4,5-dichlorobenzene-1-sulfonic acid","InChI=1S/C6H5Cl2NO3S/c7-3-1-5(9)6(2-4(3)8)13(10,11)12/h1-2H,9H2,(H,10,11,12)",AKLDPNVZTZIVFA-UHFFFAOYSA-N,Nc1cc(Cl)c(Cl)cc1[S](O)(=O)=O,-2.1052106917,0.1415835482944964,3,G5,242.083,1.8223000000000005,50.68900000000001,13.0,3.0,2.0,7.0,1.0,72.0,1.0,0.0,0.0,1.0,80.39,85.00646228031364,3.501552734477128,443.4377406973404,High,True
A-4584,"2-ethylhexanoic acid, manganese salt","InChI=1S/C8H16O2.Mn/c1-3-5-6-7(4-2)8(9)10;/h7H,3-6H2,1-2H3,(H,9,10);/q;+2",ODUSECXQXODQGI-UHFFFAOYSA-N,[Mn++].CCCCC(CC)C(O)=O,-2.0439121671,0.3950252368500001,2,G3,199.152,2.2849,40.9418,11.0,1.0,1.0,3.0,5.0,65.0,0.0,0.0,0.0,0.0,37.3,78.84522195306636,0.0,104.26518047667868,High,True
A-4592,benzene,InChI=1S/C6H6/c1-2-4-6-5-3-1/h1-6H,UHOVQNZJYSORNB-UHFFFAOYSA-N,c1ccccc1,-1.6423088751,0.0118689234999999,2,G3,78.11399999999999,1.6866,26.441999999999997,6.0,0.0,0.0,0.0,0.0,30.0,1.0,0.0,0.0,1.0,0.0,37.43140311949697,3.000000000000001,71.96100505779535,High,True
A-4598,butyl prop-2-enoate,"InChI=1S/C7H12O2/c1-3-5-6-9-7(8)4-2/h4H,2-3,5-6H2,1H3",CQEYYJKEWSMYFG-UHFFFAOYSA-N,CCCCOC(=O)C=C,-1.8773408513,0.0782649099585443,4,G5,128.17099999999996,1.5157,36.06399999999999,9.0,2.0,0.0,2.0,4.0,52.0,0.0,0.0,0.0,0.0,26.3,55.514368011575584,3.0655033793880806,97.089273230246,High,True
A-4600,4-(butoxymethyl)-2-methoxyphenol,"InChI=1S/C12H18O3/c1-3-4-7-15-9-10-5-6-11(13)12(8-10)14-2/h5-6,8,13H,3-4,7,9H2,1-2H3",VLDFMKOUUQYFGF-UHFFFAOYSA-N,CCCCOCc1ccc(O)c(OC)c1,-2.0948968063,0.0124831631999999,2,G3,210.273,2.717500000000001,59.22280000000005,15.0,3.0,1.0,3.0,6.0,84.0,1.0,0.0,0.0,1.0,38.69,90.64238001708638,2.4713577775816344,296.91874784908947,High,True
A-4606,3-(diethylamino)phenol,"InChI=1S/C10H15NO/c1-3-11(4-2)9-6-5-7-10(12)8-9/h5-8,12H,3-4H2,1-2H3",WAVOOWVINKGEHS-UHFFFAOYSA-N,CCN(CC)c1cccc(O)c1,-2.0112787971,0.0153673084999998,2,G3,165.236,2.2384000000000004,51.66780000000004,12.0,2.0,1.0,2.0,3.0,66.0,1.0,0.0,0.0,1.0,23.47,73.44523899948278,2.853599600301738,243.34882468182084,High,True
A-4607,"2,3-bis(nitrooxy)propyl nitrate","InChI=1S/C3H5N3O9/c7-4(8)13-1-3(15-6(11)12)2-14-5(9)10/h3H,1-2H2",SNIOPGDIGTZGOP-UHFFFAOYSA-N,[O-][N+](=O)OCC(CO[N+]([O-])=O)O[N+]([O-])=O,-2.1520684654,0.0421498182876954,4,G5,227.085,-1.0200999999999996,37.76020000000002,15.0,9.0,0.0,12.0,8.0,86.0,0.0,0.0,0.0,0.0,157.11,80.63081361107673,3.9922055468289934,234.9871242601569,High,True
A-4610,methyl 2-[(1E)-cyclopentylidene]acetate,"InChI=1S/C8H12O2/c1-10-8(9)6-7-4-2-3-5-7/h6H,2-5H2,1H3",ZDBCSZOFHPULAS-UHFFFAOYSA-N,COC(=O)C=C1CCCC1,-1.9425722692,0.0154668571,2,G3,140.182,1.6598,38.56700000000001,10.0,2.0,0.0,2.0,1.0,56.0,0.0,1.0,1.0,1.0,26.3,60.87347897244297,2.4451847610018858,150.6405264597299,High,True
A-4620,"2,2-difluoroethanamine","InChI=1S/C2H5F2N/c3-2(4)1-5/h2H,1,5H2",OVRWUZYZECPJOB-UHFFFAOYSA-N,NCC(F)F,0.5225303771,0.0063405158999999,2,G3,81.065,0.2101999999999999,15.058400000000002,5.0,1.0,1.0,3.0,1.0,32.0,0.0,0.0,0.0,0.0,26.02,28.77515464509134,2.5395388613593908,21.60964047443681,High,True
A-4623,"[(2R,3R,4S,5R,6R)-3,4,5,6-tetrakis(acetyloxy)oxan-2-yl]methyl acetate","InChI=1S/C16H22O11/c1-7(17)22-6-12-13(23-8(2)18)14(24-9(3)19)15(25-10(4)20)16(27-12)26-11(5)21/h12-16H,6H2,1-5H3",LPTITAGPBXDDGR-UHFFFAOYSA-N,CC(=O)OCC1OC(OC(C)=O)C(OC(C)=O)C(OC(C)=O)C1OC(C)=O,-2.4153529113,0.11732354435,2,G3,390.3410000000002,-0.3673999999999986,83.72200000000004,27.0,11.0,0.0,11.0,6.0,152.0,0.0,1.0,1.0,1.0,140.73000000000002,154.6964334675096,3.285482321670223,599.1739454400771,High,True
A-4625,2-phenyloxirane,"InChI=1S/C8H8O/c1-2-4-7(5-3-1)8-6-9-8/h1-5,8H,6H2",AWMVMTVKBNGEAK-UHFFFAOYSA-N,C1OC1c2ccccc2,-1.9065411213,0.1519674931499999,2,G3,120.15099999999995,1.7579,35.135000000000005,9.0,1.0,0.0,1.0,1.0,46.0,1.0,1.0,1.0,2.0,12.53,54.26900142426783,2.2860713078743733,188.9824257604436,High,True
A-4630,2-chlorobenzaldehyde,InChI=1S/C7H5ClO/c8-7-4-2-1-3-6(7)5-9/h1-5H,FPYUJUBAXZAQNL-UHFFFAOYSA-N,Clc1ccccc1C=O,-1.9805722205,0.0439775851499999,2,G3,140.56899999999996,2.1525,36.839500000000015,9.0,1.0,0.0,2.0,1.0,46.0,1.0,0.0,0.0,1.0,17.07,58.261133560819005,3.1479791300397526,219.91106510209755,High,True
A-4639,5-nitroisophthalic acid,"InChI=1S/C8H5NO6/c10-7(11)4-1-5(8(12)13)3-6(2-4)9(14)15/h1-3H,(H,10,11)(H,12,13)",NBDAHKQJXVLAID-UHFFFAOYSA-N,OC(=O)c1cc(cc(c1)[N+]([O-])=O)C(O)=O,-2.178419855,0.0992099275,2,G3,211.129,0.9912,47.015,15.0,4.0,2.0,7.0,3.0,78.0,1.0,0.0,0.0,1.0,117.74,82.72577477526956,3.387380075453351,373.4380113941315,High,True
A-4647,lithium(1+) ion fluoride,InChI=1S/FH.Li/h1H;/q;+1/p-1,PQXKHYXIUOZZFA-UHFFFAOYSA-M,[Li+].[F-],-1.2901015882,0.0138502539675255,3,G5,25.939,-5.992,0.0,2.0,0.0,0.0,2.0,0.0,8.0,0.0,0.0,0.0,0.0,0.0,24.39470625023717,0.0,2.0,High,True
A-4661,naphthalen-1-ol,"InChI=1S/C10H8O/c11-10-7-3-5-8-4-1-2-6-9(8)10/h1-7,11H",KJCVRFUGPWSIIH-UHFFFAOYSA-N,Oc1cccc2ccccc12,-2.0619739225,0.0862716370398854,5,G5,144.17299999999997,2.5454000000000008,45.61280000000003,11.0,1.0,1.0,1.0,0.0,54.0,2.0,0.0,0.0,2.0,20.23,64.90730140342818,2.9131611636048604,374.03449039867854,High,True
A-4676,(3Z)-hex-3-en-1-yl acetate,"InChI=1S/C8H14O2/c1-3-4-5-6-7-10-8(2)9/h4-5H,3,6-7H2,1-2H3/b5-4-",NPFVOOAXDOBMCE-PLNGDYQASA-N,CC\C=C/CCOC(C)=O,-2.111500803,0.0077560831,2,G3,142.198,1.9058,40.68100000000001,10.0,2.0,0.0,2.0,4.0,58.0,0.0,0.0,0.0,0.0,26.3,61.87931012597219,3.047630004121517,116.42599881712918,High,True
A-4680,"3,4-dichlorobut-1-ene","InChI=1S/C4H6Cl2/c1-2-4(6)3-5/h2,4H,1,3H2",XVEASTGLHPVZNA-UHFFFAOYSA-N,ClCC(Cl)C=C,-2.0555103791,0.2446618602933445,3,G5,124.998,2.0186,30.557999999999986,6.0,0.0,0.0,2.0,2.0,36.0,0.0,0.0,0.0,0.0,0.0,47.75100679259846,2.964900494759057,42.8127439131334,High,True
A-4683,1-octylpyrrolidin-2-one,"InChI=1S/C12H23NO/c1-2-3-4-5-6-7-10-13-11-8-9-12(13)14/h2-11H2,1H3",WPPOGHDFAVQKLN-UHFFFAOYSA-N,CCCCCCCCN1CCCC1=O,-2.2577490108,0.0532420428153982,5,G5,197.322,2.9693000000000014,59.19000000000005,14.0,1.0,0.0,2.0,7.0,82.0,0.0,1.0,1.0,1.0,20.31,87.66913890291015,1.904676693511306,167.70466441100885,High,True
A-4707,2-tert-butylphenol,"InChI=1S/C10H14O/c1-10(2,3)8-6-4-5-7-9(8)11/h4-7,11H,1-3H3",WJQOZHYUIDYNHM-UHFFFAOYSA-N,CC(C)(C)c1ccccc1O,-2.1899589144,0.0708205427999999,2,G3,150.22099999999998,2.689700000000001,46.80680000000004,11.0,1.0,1.0,1.0,0.0,60.0,1.0,0.0,0.0,1.0,20.23,67.6854053292794,3.1411091905317954,245.29484428381988,High,True
A-4712,2-chlorobutane,"InChI=1S/C4H9Cl/c1-3-4(2)5/h4H,3H2,1-2H3",BSPCSKHALVHRSR-UHFFFAOYSA-N,CCC(C)Cl,-2.0012638712,0.0302999672401273,3,G5,92.569,2.0237,25.605999999999987,5.0,0.0,0.0,1.0,1.0,32.0,0.0,0.0,0.0,0.0,0.0,38.13734359790105,2.5395388613593908,17.609640474436812,High,True
A-4715,2-ethylhexan-1-ol,"InChI=1S/C8H18O/c1-3-5-6-8(4-2)7-9/h8-9H,3-7H2,1-2H3",YIWUKEYIRIRTPP-UHFFFAOYSA-N,CCCCC(CC)CO,-2.1604718659,0.066786410300013,3,G5,130.231,2.1951000000000005,40.3918,9.0,1.0,1.0,1.0,5.0,56.0,0.0,0.0,0.0,0.0,20.23,58.08807958080181,3.092246194602392,48.52932501298081,High,True
A-4716,6-methyloct-5-en-2-one,"InChI=1S/C9H16O/c1-4-8(2)6-5-7-9(3)10/h6H,4-5,7H2,1-3H3/b8-6+",SAXWRVSDVXCTEL-SOFGYWHQSA-N,CC\C(C)=C\CCC(C)=O,-2.1925860364,0.10619105765,2,G3,140.22599999999997,2.711900000000001,43.96300000000002,10.0,1.0,0.0,1.0,4.0,58.0,0.0,0.0,0.0,0.0,17.07,63.13070701086192,3.4278042616712594,133.66369253840435,High,True