ID,Name,InChI,InChIKey,SMILES,Solubility,SD,Ocurrences,Group,MolWt,MolLogP,MolMR,HeavyAtomCount,NumHAcceptors,NumHDonors,NumHeteroatoms,NumRotatableBonds,NumValenceElectrons,NumAromaticRings,NumSaturatedRings,NumAliphaticRings,RingCount,TPSA,LabuteASA,BalabanJ,BertzCT,bin,is_sol
A-5982,"1-phenyldecane-1,3-dione","InChI=1S/C16H22O2/c1-2-3-4-5-9-12-15(17)13-16(18)14-10-7-6-8-11-14/h6-8,10-11H,2-5,9,12-13H2,1H3",IFQULAPKPYIHBS-UHFFFAOYSA-N,CCCCCCCC(=O)CC(=O)c1ccccc1,-5.8836966949,0.0451755276483622,3,G5,246.35,4.189000000000004,73.77250000000005,18.0,2.0,0.0,2.0,9.0,98.0,1.0,0.0,0.0,1.0,34.14,109.40386846355062,2.219603799293727,367.9431671967477,Low,False
A-5998,C.i. Pigment Red 179,"InChI=1S/C26H14N2O4/c1-27-23(29)15-7-3-11-13-5-9-17-22-18(26(32)28(2)25(17)31)10-6-14(20(13)22)12-4-8-16(24(27)30)21(15)19(11)12/h3-10H,1-2H3",PJQYNUFEEZFYIS-UHFFFAOYSA-N,CN1C(=O)c2ccc3c4ccc5C(=O)N(C)C(=O)c6ccc(c7ccc(C1=O)c2c37)c4c56,-7.7185099927,0.2355099082882299,3,G5,418.4080000000002,3.0370000000000017,128.05800000000002,32.0,6.0,0.0,6.0,0.0,152.0,7.0,0.0,0.0,7.0,78.14,177.7146516342313,1.9131526012910405,1886.3470521899749,Low,False
A-6048,"4,5,6,7-tetrachloro-2-[2-(4,5,6,7-tetrachloro-1,3-dioxo-2,3-dihydro-1H-inden-2-yl)quinolin-8-yl]-2,3-dihydro-1H-isoindole-1,3-dione","InChI=1S/C26H6Cl8N2O4/c27-14-10-11(15(28)19(32)18(14)31)24(38)9(23(10)37)7-5-4-6-2-1-3-8(22(6)35-7)36-25(39)12-13(26(36)40)17(30)21(34)20(33)16(12)29/h1-5,9H",ZEHOVWPIGREOPO-UHFFFAOYSA-N,Clc1c(Cl)c(Cl)c2C(=O)C(c3ccc4cccc(N5C(=O)c6c(Cl)c(Cl)c(Cl)c(Cl)c6C5=O)c4n3)C(=O)c2c1Cl,-7.7273960926,0.2925133260000003,2,G3,693.9680000000001,9.425399999999996,157.24899999999994,40.0,5.0,0.0,14.0,2.0,200.0,4.0,0.0,2.0,6.0,84.41,264.0920041946632,1.5189352496094188,1847.0675413108424,Low,False
A-6075,Aluminum cobalt oxide,InChI=1S/2Al.2Co.5O/q2*+3;2*+2;5*-2,CRHLEZORXKQUEI-UHFFFAOYSA-N,[O--].[O--].[O--].[O--].[O--].[Al+3].[Al+3].[Co++].[Co++],-8.4010988426,0.3273137652548241,3,G5,251.825,-1.3605999999999998,14.940499999999998,9.0,0.0,0.0,9.0,0.0,54.0,0.0,0.0,0.0,0.0,142.5,95.1593378488741,-0.0,12.919684538544,Low,False
A-6089,"2-ethylhexanoic acid, zirconium salt","InChI=1S/2C8H16O2.Zr/c2*1-3-5-6-7(4-2)8(9)10;/h2*7H,3-6H2,1-2H3,(H,9,10);/q;;+2/p-2",RIYRDRZNXDRTIL-UHFFFAOYSA-L,[Zr++].CCCCC(CC)C([O-])=O.CCCCC(CC)C([O-])=O,-8.7020121255,0.2764209842999996,2,G3,377.6360000000002,1.9029,76.62600000000006,21.0,4.0,0.0,5.0,10.0,122.0,0.0,0.0,0.0,0.0,80.25999999999999,148.3789831923783,-2.945454481041324e-07,230.6615312216908,Low,False
B-6,estradiol,"InChI=1S/C18H24O2/c1-18-9-8-14-13-5-3-12(19)10-11(13)2-4-15(14)16(18)6-7-17(18)20/h3,5,10,14-17,19-20H,2,4,6-9H2,1H3/t14-,15-,16+,17+,18+/m1/s1",VOXZDWNPVJITMN-ZBRFXRBCSA-N,C[C@]12CC[C@H]3[C@@H](CCc4cc(O)ccc34)[C@@H]1CC[C@@H]2O,-4.8789,0.1900983559,2,G3,272.388,3.609200000000002,78.73060000000004,20.0,2.0,2.0,2.0,0.0,108.0,1.0,2.0,3.0,4.0,40.46,120.38168253606062,1.7111998765070122,538.2198018097884,Low,False
B-8,"2,3,6-trichlorobenzoic acid","InChI=1S/C7H3Cl3O2/c8-3-1-2-4(9)6(10)5(3)7(11)12/h1-2H,(H,11,12)",XZIDTOHMJBOSOX-UHFFFAOYSA-N,OC(=O)c1c(Cl)ccc(Cl)c1Cl,-1.4666,0.0182999999999999,2,G3,225.458,3.3450000000000006,48.43130000000001,12.0,1.0,1.0,5.0,1.0,64.0,1.0,0.0,0.0,1.0,37.3,83.66189976677836,3.4289308810061763,335.66852769827057,High,True
B-33,trichlorfon,"InChI=1S/C4H8Cl3O4P/c1-10-12(9,11-2)3(8)4(5,6)7/h3,8H,1-2H3",NFACJZMKEDPNKN-UHFFFAOYSA-N,CO[P](=O)(OC)C(O)C(Cl)(Cl)Cl,-0.3315,0.0980614886464383,3,G5,257.437,2.1609000000000003,47.92130000000002,12.0,4.0,1.0,8.0,3.0,74.0,0.0,0.0,0.0,0.0,55.760000000000005,85.22814067922201,4.657834605001849,183.2322192588714,High,True
B-46,metacil,"InChI=1S/C5H6N2OS/c1-3-2-4(8)7-5(9)6-3/h2H,1H3,(H2,6,7,8,9)",HWGBHCRJGXAGEU-UHFFFAOYSA-N,CC1=CC(=O)NC(=S)N1,-2.4259,0.0050499999999999,2,G3,142.18300000000002,0.74091,36.9844,9.0,2.0,2.0,4.0,0.0,48.0,1.0,0.0,0.0,1.0,48.65,56.75594354303523,3.515622477176413,282.9743004823358,High,True
B-51,coumaphos,"InChI=1S/C14H16ClO5PS/c1-4-17-21(22,18-5-2)20-10-6-7-11-9(3)13(15)14(16)19-12(11)8-10/h6-8H,4-5H2,1-3H3",BXNANOICGRISHX-UHFFFAOYSA-N,CCO[P](=S)(OCC)Oc1ccc2C(=C(Cl)C(=O)Oc2c1)C,-5.3835,0.4282500000000002,2,G3,362.7710000000001,4.431120000000004,90.39600000000004,22.0,6.0,0.0,8.0,6.0,120.0,2.0,0.0,0.0,2.0,57.900000000000006,137.92794716588332,2.43202137459269,778.6322379127124,Low,False
B-63,demerol,"InChI=1S/C15H21NO2/c1-3-18-14(17)15(9-11-16(2)12-10-15)13-7-5-4-6-8-13/h4-8H,3,9-12H2,1-2H3",XADCESSVHJOZHK-UHFFFAOYSA-N,CCOC(=O)C1(CCN(C)CC1)c2ccccc2,-1.8861,0.15305,2,G3,247.338,2.2131,71.48400000000005,18.0,3.0,0.0,3.0,3.0,98.0,1.0,1.0,1.0,2.0,29.54,108.74495199529125,2.3130142833469614,394.21444538868286,High,True
B-85,3-methyl-4-chlorophenol,"InChI=1S/C7H7ClO/c1-5-4-6(9)2-3-7(5)8/h2-4,9H,1H3",CFKMVGJGLGKFKI-UHFFFAOYSA-N,Cc1cc(O)ccc1Cl,-1.5704,0.0552,2,G3,142.58499999999998,2.35402,37.853800000000014,9.0,1.0,1.0,2.0,0.0,48.0,1.0,0.0,0.0,1.0,20.23,58.89384521297126,3.171678030440916,220.15617759993404,High,True
B-86,dl-methionine,"InChI=1S/C5H11NO2S/c1-9-3-2-4(6)5(7)8/h4H,2-3,6H2,1H3,(H,7,8)",FFEARJCKVFRZRR-UHFFFAOYSA-N,CSCCC(N)C(O)=O,-0.6593,0.1191519739499999,2,G3,149.215,0.1513999999999998,38.61019999999999,9.0,3.0,2.0,4.0,4.0,54.0,0.0,0.0,0.0,0.0,63.32,58.61777606003371,3.2659073992264416,96.95878455585176,High,True
B-90,dopa,"InChI=1S/C9H11NO4/c10-6(9(13)14)3-5-1-2-7(11)8(12)4-5/h1-2,4,6,11-12H,3,10H2,(H,13,14)",WTDRDQBEARUVNC-UHFFFAOYSA-N,NC(Cc1ccc(O)c(O)c1)C(O)=O,-1.5959,0.1447494463624031,3,G5,197.19,0.0521999999999999,49.08680000000002,14.0,4.0,4.0,5.0,3.0,76.0,1.0,0.0,0.0,1.0,103.78,80.41034351633131,2.7772680269131413,350.6652327975253,High,True
B-95,6-aminohexanoic acid,"InChI=1S/C6H13NO2/c7-5-3-1-2-4-6(8)9/h1-5,7H2,(H,8,9)",SLXKOJJOQWFEFD-UHFFFAOYSA-N,NCCCCCC(O)=O,0.5854,0.0328968788499999,2,G3,131.17499999999998,0.5901000000000001,35.158199999999994,9.0,2.0,2.0,3.0,5.0,54.0,0.0,0.0,0.0,0.0,63.32,54.85960814906508,2.828868134909685,83.12704561867443,High,True
B-99,dieldrin,"InChI=1S/C12H8Cl6O/c13-8-9(14)11(16)5-3-1-2(6-7(3)19-6)4(5)10(8,15)12(11,17)18/h2-7H,1H2",DFBKLUNHFCTMDC-UHFFFAOYSA-N,ClC1=C(Cl)C2(Cl)C3C4CC(C5OC45)C3C1(Cl)C2(Cl)Cl,-6.2908,0.0691772762947164,3,G5,380.913,4.481400000000002,77.57500000000003,19.0,1.0,0.0,7.0,0.0,104.0,0.0,4.0,5.0,5.0,12.53,139.96799807715874,1.8029074597936312,516.4228624657378,Low,False
B-107,"alanine, 2-methyl-","InChI=1S/C4H9NO2/c1-4(2,5)3(6)7/h5H2,1-2H3,(H,6,7)",FUOOLUPWFVMBKG-UHFFFAOYSA-N,CC(C)(N)C(O)=O,0.2453,0.06265,2,G3,103.12099999999998,-0.1916999999999999,25.9022,7.0,2.0,2.0,3.0,1.0,42.0,0.0,0.0,0.0,0.0,63.32,42.12972392027186,3.7911184170869663,82.18080946738405,High,True
B-124,"3,5-diiodotyrosine","InChI=1S/C9H9I2NO3/c10-5-1-4(2-6(11)8(5)13)3-7(12)9(14)15/h1-2,7,13H,3,12H2,(H,14,15)/t7-/m0/s1",NYPYHUZRZVSYKL-ZETCQYMHSA-N,N[C@@H](Cc1cc(I)c(O)c(I)c1)C(O)=O,-2.8583,0.0070999999999998,2,G3,432.98300000000006,1.5557999999999998,72.85600000000001,15.0,3.0,3.0,6.0,3.0,82.0,1.0,0.0,0.0,1.0,83.55000000000001,114.1397860062226,2.9237270307423464,371.9390010832792,High,True
B-125,o-phenanthroline,InChI=1S/C12H8N2/c1-3-9-5-6-10-4-2-8-14-12(10)11(9)13-7-1/h1-8H,DGEZNRSVGBDHLK-UHFFFAOYSA-N,c1cnc2c(c1)ccc3cccnc23,-1.826,0.2892119561075502,3,G5,180.21,2.7830000000000004,57.044000000000025,14.0,2.0,0.0,2.0,0.0,66.0,3.0,0.0,0.0,3.0,25.78,81.23402814486039,2.610318687415942,547.2925174892929,High,True
B-135,norethindrone,"InChI=1S/C20H26O2/c1-3-20(22)11-9-18-17-6-4-13-12-14(21)5-7-15(13)16(17)8-10-19(18,20)2/h1,12,15-18,22H,4-11H2,2H3/t15-,16+,17+,18-,19-,20-/m0/s1",VIKNJXKGJWUCNN-XGXHKTLJSA-N,C[C@]12CC[C@H]3[C@@H](CCC4=CC(=O)CC[C@H]34)[C@@H]1CC[C@@]2(O)C#C,-4.6271,0.0497743153999996,2,G3,298.426,3.4925000000000024,85.87580000000004,22.0,2.0,1.0,2.0,0.0,118.0,0.0,3.0,4.0,4.0,37.3,132.91520479916298,1.6520192857313454,583.0048893946201,Low,False
B-140,maltose,"InChI=1S/C12H22O11/c13-1-3-5(15)6(16)9(19)12(22-3)23-10-4(2-14)21-11(20)8(18)7(10)17/h3-20H,1-2H2",GUBGYTABKSRVRQ-UHFFFAOYSA-N,OCC1OC(OC2C(O)C(O)C(O)OC2CO)C(O)C(O)C1O,0.3577,0.30105,2,G3,342.297,-5.397199999999993,68.61940000000004,23.0,11.0,8.0,11.0,4.0,136.0,0.0,2.0,2.0,2.0,189.53,130.43645768522254,2.114861902481824,378.0184383617949,High,True
B-146,histidine,"InChI=1S/C6H9N3O2/c7-5(6(10)11)1-4-2-8-3-9-4/h2-3,5H,1,7H2,(H,8,9)(H,10,11)",HNDVDQJCIGZPNO-UHFFFAOYSA-N,NC(Cc1[nH]cnc1)C(O)=O,-0.5314,0.0129514591,2,G3,155.15699999999998,-0.6359000000000006,37.9029,11.0,3.0,3.0,5.0,3.0,60.0,1.0,0.0,0.0,1.0,92.0,63.250684413900096,2.4987607772382447,231.9852514925044,High,True
B-148,cytosine,"InChI=1S/C4H5N3O/c5-3-1-2-6-4(8)7-3/h1-2H,(H3,5,6,7,8)",OPTASPLRGRRNAP-UHFFFAOYSA-N,NC1=CC=NC(=O)N1,-1.1426,0.0086999999999999,2,G3,111.104,-0.6479000000000001,29.2701,8.0,3.0,2.0,4.0,0.0,42.0,1.0,0.0,0.0,1.0,71.77,45.37211187844647,3.277417459528498,228.72507399518807,High,True
B-153,methoxychlor,"InChI=1S/C16H15Cl3O2/c1-20-13-7-3-11(4-8-13)15(16(17,18)19)12-5-9-14(21-2)10-6-12/h3-10,15H,1-2H3",IAKOZHOLGAGEJT-UHFFFAOYSA-N,COc1ccc(cc1)C(c2ccc(OC)cc2)C(Cl)(Cl)Cl,-6.5386,0.1888077527539585,4,G5,345.6529999999999,5.205900000000002,88.12100000000004,21.0,2.0,0.0,5.0,4.0,112.0,2.0,0.0,0.0,2.0,18.46,139.0851549228062,2.4145368579066235,526.466238471707,Low,False
B-157,adenine,"InChI=1S/C5H5N5/c6-4-3-5(9-1-7-3)10-2-8-4/h1-2H,(H3,6,7,8,9,10)",GFFGJBXGBJISGV-UHFFFAOYSA-N,Nc1ncnc2nc[nH]c12,-2.1179,0.0710499999999998,2,G3,135.13,-0.0648999999999999,36.0961,10.0,4.0,2.0,5.0,0.0,50.0,2.0,0.0,0.0,2.0,80.47999999999999,56.32106271209872,2.950090305322589,351.5657969317911,High,True
B-160,quinethazone,"InChI=1S/C10H12ClN3O3S/c1-2-9-13-7-4-6(11)8(18(12,16)17)3-5(7)10(15)14-9/h3-4,9,13H,2H2,1H3,(H,14,15)(H2,12,16,17)",AGMMTXLNIQSRCG-UHFFFAOYSA-N,CCC1NC(=O)c2cc(c(Cl)cc2N1)[S](N)(=O)=O,-3.2859,0.00705,2,G3,289.7440000000001,0.8788,67.99310000000001,18.0,4.0,3.0,8.0,2.0,98.0,1.0,0.0,1.0,2.0,101.29,109.55051970712348,2.5759478838468004,615.039073944342,High,True
B-169,propyne,"InChI=1S/C3H4/c1-3-2/h1H,2H3",MWWATHDPGQKSAR-UHFFFAOYSA-N,CC#C,-1.0417,0.3158500000000001,2,G3,40.065000000000005,0.6395,14.507,3.0,0.0,0.0,0.0,0.0,16.0,0.0,0.0,0.0,0.0,0.0,20.46836064848204,2.475534205527556,21.509775004326936,High,True
B-177,bromoform,InChI=1S/CHBr3/c2-1(3)4/h1H,DIKBFYAXUHHXCS-UHFFFAOYSA-N,BrC(Br)Br,-1.9113,0.0516499999999999,2,G3,252.731,2.4547,30.569,4.0,0.0,0.0,3.0,0.0,26.0,0.0,0.0,0.0,0.0,0.0,50.34189384475364,2.3237900077244498,8.0,High,True
B-180,2-iodopropane,"InChI=1S/C3H7I/c1-3(2)4/h3H,1-2H3",FMKOJHQHASLBPH-UHFFFAOYSA-N,CC(C)I,-2.0843,0.0583500000000001,2,G3,169.993,1.8298,29.155999999999988,4.0,0.0,0.0,1.0,0.0,26.0,0.0,0.0,0.0,0.0,0.0,40.7309733776664,2.3237900077244498,8.0,High,True
B-202,"1,1,2,2,-tetrachlorodifluoroethane","InChI=1S/C2Cl4F2/c3-1(4,7)2(5,6)8",UGCSPKPEHQEOSR-UHFFFAOYSA-N,FC(Cl)(Cl)C(F)(Cl)Cl,-3.2301,0.0205500000000002,2,G3,203.83,3.1882,31.090000000000003,8.0,0.0,0.0,6.0,1.0,50.0,0.0,0.0,0.0,0.0,0.0,64.64832885560531,4.020391543176799,67.01955000865388,High,True
B-205,camphor,"InChI=1S/C10H16O/c1-9(2)7-4-5-10(9,3)8(11)6-7/h7H,4-6H2,1-3H3",DSSYKIVIOFKYAU-UHFFFAOYSA-N,CC1(C)C2CCC1(C)C(=O)C2,-1.9784,0.0674500169756489,5,G5,152.237,2.401700000000001,44.23600000000002,11.0,1.0,0.0,1.0,0.0,62.0,0.0,2.0,2.0,2.0,17.07,68.17358985038433,2.4741517243797517,216.91266689075215,High,True
B-206,alloxantin,"InChI=1S/C8H6N4O8/c13-1-7(19,2(14)10-5(17)9-1)8(20)3(15)11-6(18)12-4(8)16/h19-20H,(H2,9,10,13,14,17)(H2,11,12,15,16,18)",IWDDXZKCDHOOSF-UHFFFAOYSA-N,OC1(C(=O)NC(=O)NC1=O)C2(O)C(=O)NC(=O)NC2=O,-1.9942,0.1179,2,G3,286.156,-4.819399999999998,53.2624,20.0,8.0,6.0,12.0,1.0,106.0,0.0,2.0,2.0,2.0,191.0,108.03923236063416,2.5655828576955138,503.28429258442094,High,True
B-210,heptachlor,"InChI=1S/C10H5Cl7/c11-4-2-1-3-5(4)9(15)7(13)6(12)8(3,14)10(9,16)17/h1-5H",FRCCEHPWNOQAEU-UHFFFAOYSA-N,ClC1C=CC2C1C3(Cl)C(=C(Cl)C2(Cl)C3(Cl)Cl)Cl,-6.3168,0.435874151052291,3,G5,373.3209999999999,5.2415,76.09800000000001,17.0,0.0,0.0,7.0,0.0,94.0,0.0,1.0,3.0,3.0,0.0,133.7498941206145,2.317184279672631,467.2748718023595,Low,False
B-215,"barbituric acid,5-me-5-phenyl-","InChI=1S/C11H10N2O3/c1-11(7-5-3-2-4-6-7)8(14)12-10(16)13-9(11)15/h2-6H,1H3,(H2,12,13,14,15,16)",LSAOZCAKUIANSQ-UHFFFAOYSA-N,CC1(C(=O)NC(=O)NC1=O)c2ccccc2,-2.4581,0.03905,2,G3,218.212,0.3102999999999996,55.475400000000015,16.0,3.0,2.0,5.0,1.0,82.0,1.0,1.0,1.0,2.0,75.27000000000001,91.83457320529818,2.4809749690175766,447.3778361097199,High,True
B-220,3-methyl-3-pentanol,"InChI=1S/C6H14O/c1-4-6(3,7)5-2/h7H,4-5H2,1-3H3",FRDAATYAJDYRNW-UHFFFAOYSA-N,CCC(C)(O)CC,-0.38,0.01,2,G3,102.17699999999998,1.5574,31.205799999999986,7.0,1.0,1.0,1.0,2.0,44.0,0.0,0.0,0.0,0.0,20.23,45.35819535200859,3.360435142696057,42.14170945007629,High,True
B-226,triethyl citrate,"InChI=1S/C12H20O7/c1-4-17-9(13)7-12(16,11(15)19-6-3)8-10(14)18-5-2/h16H,4-8H2,1-3H3",DOOTYTYQINUNNV-UHFFFAOYSA-N,CCOC(=O)CC(O)(CC(=O)OCC)C(=O)OCC,-0.6285,0.0307732810251421,3,G5,276.285,0.187,64.08280000000003,19.0,7.0,1.0,7.0,8.0,110.0,0.0,0.0,0.0,0.0,99.13,111.37305002704018,4.846201470660812,304.03958829237104,High,True
B-230,tri-p-cresyl phosphate,"InChI=1S/C21H21O4P/c1-16-4-10-19(11-5-16)23-26(22,24-20-12-6-17(2)7-13-20)25-21-14-8-18(3)9-15-21/h4-15H,1-3H3",BOSMZFBHAYFUBJ-UHFFFAOYSA-N,Cc1ccc(O[P](=O)(Oc2ccc(C)cc2)Oc3ccc(C)cc3)cc1,-6.0892,0.0510173775733635,3,G5,368.3690000000001,6.256760000000005,103.02750000000005,26.0,4.0,0.0,5.0,6.0,134.0,3.0,0.0,0.0,3.0,44.760000000000005,153.53066423781056,1.876960613088822,777.8125787062978,Low,False
B-264,"peroxide, bis(1-methyl-1-phenylethyl)","InChI=1S/C18H22O2/c1-17(2,15-11-7-5-8-12-15)19-20-18(3,4)16-13-9-6-10-14-16/h5-14H,1-4H3",XMNIXWIUMCBBBL-UHFFFAOYSA-N,CC(C)(OOC(C)(C)c1ccccc1)c2ccccc2,-5.7692,0.014646629,2,G3,270.372,4.805200000000005,81.10600000000007,20.0,2.0,0.0,2.0,5.0,106.0,2.0,0.0,0.0,2.0,18.46,120.83453578669274,2.080213974786274,478.35938487514255,Low,False
B-265,p-tert-amylphenol,"InChI=1S/C11H16O/c1-4-11(2,3)9-5-7-10(12)8-6-9/h5-8,12H,4H2,1-3H3",NRZWYNLTFLDQQX-UHFFFAOYSA-N,CCC(C)(C)c1ccc(O)cc1,-2.9902,0.0267267555000001,2,G3,164.248,3.079800000000001,51.42380000000004,12.0,1.0,1.0,1.0,2.0,66.0,1.0,0.0,0.0,1.0,20.23,74.05034744367602,2.9642864574405583,246.2115519825244,High,True
B-282,cyclizine,"InChI=1S/C18H22N2/c1-19-12-14-20(15-13-19)18(16-8-4-2-5-9-16)17-10-6-3-7-11-17/h2-11,18H,12-15H2,1H3",UVKZSORBKUEBAZ-UHFFFAOYSA-N,CN1CCN(CC1)C(c2ccccc2)c3ccccc3,-2.4255,0.44775,2,G3,266.38800000000003,3.0234000000000014,83.79700000000005,20.0,2.0,0.0,2.0,3.0,104.0,2.0,1.0,1.0,3.0,6.48,121.1919861988182,1.9195611561338584,476.1291903332024,High,True
B-291,riboflavin,"InChI=1S/C17H20N4O6/c1-7-3-9-10(4-8(7)2)21(5-11(23)14(25)12(24)6-22)15-13(18-9)16(26)20-17(27)19-15/h3-4,11-12,14,22-25H,5-6H2,1-2H3,(H,20,26,27)",AUNGANRZJHBGPY-UHFFFAOYSA-N,Cc1cc2N=C3C(=O)NC(=O)N=C3N(CC(O)C(O)C(O)CO)c2cc1C,-3.6478,0.0416782383931417,3,G5,376.36900000000014,-1.7235599999999989,95.6209,27.0,9.0,5.0,10.0,5.0,144.0,1.0,0.0,2.0,3.0,161.56,152.29232415746102,2.2752894120966243,1075.453994856704,High,True
B-318,"1,2,3-trihydroxybenzene","InChI=1S/C6H6O3/c7-4-2-1-3-5(8)6(4)9/h1-3,7-9H",WQGWDDDVZFFDIG-UHFFFAOYSA-N,Oc1cccc(O)c1O,0.6043,0.04785,2,G3,126.11099999999998,0.8033999999999997,31.436399999999992,9.0,3.0,3.0,3.0,0.0,48.0,1.0,0.0,0.0,1.0,60.69,51.814104376085,3.2478347337367026,199.2929995478469,High,True
B-320,hexabromobenzene,InChI=1S/C6Br6/c7-1-2(8)4(10)6(12)5(11)3(1)9,CAYGQBVSOZLICD-UHFFFAOYSA-N,Brc1c(Br)c(Br)c(Br)c(Br)c1Br,-9.5374,0.1013000000000001,2,G3,551.49,6.261600000000001,72.642,12.0,0.0,0.0,6.0,0.0,66.0,1.0,0.0,0.0,1.0,0.0,120.6366887533451,3.603567451474548,226.30309024251744,Low,False
B-324,"2,4,6-trichlorophenol","InChI=1S/C6H3Cl3O/c7-3-1-4(8)6(10)5(9)2-3/h1-2,10H",LINPIYWFGCPVIE-UHFFFAOYSA-N,Oc1c(Cl)cc(Cl)cc1Cl,-2.3924,0.0262,2,G3,197.448,3.3523999999999994,43.13680000000001,10.0,1.0,1.0,4.0,0.0,54.0,1.0,0.0,0.0,1.0,20.23,73.135435552338,3.310532874722407,236.16499587006643,High,True
B-329,dinoseb,"InChI=1S/C10H12N2O5/c1-3-6(2)8-4-7(11(14)15)5-9(10(8)13)12(16)17/h4-6,13H,3H2,1-2H3",OWZPCEFYPSAJFR-UHFFFAOYSA-N,CCC(C)c1cc(cc(c1O)[N+]([O-])=O)[N+]([O-])=O,-3.6646,0.2573985867026204,3,G5,240.215,2.7221000000000024,60.121600000000015,17.0,5.0,1.0,7.0,4.0,92.0,1.0,0.0,0.0,1.0,106.51,96.99135677427898,3.4804705364557766,472.0092160085263,High,True
B-331,"1,2-benzenedicarboxamide","InChI=1S/C8H8N2O2/c9-7(11)5-3-1-2-4-6(5)8(10)12/h1-4H,(H2,9,11)(H2,10,12)",NAYYNDKKHOIIOD-UHFFFAOYSA-N,NC(=O)c1ccccc1C(N)=O,-2.4371,0.2414499999999999,2,G3,164.16399999999996,-0.1155999999999998,43.4778,12.0,2.0,2.0,4.0,2.0,62.0,1.0,0.0,0.0,1.0,86.18,69.16411294240314,3.267076195703771,300.58467465916425,High,True
B-335,4-chloro-2-nitroaniline,"InChI=1S/C6H5ClN2O2/c7-4-1-2-5(8)6(3-4)9(10)11/h1-3H,8H2",PBGKNXWGYQPUJK-UHFFFAOYSA-N,Nc1ccc(Cl)cc1[N+]([O-])=O,-2.5380000000000003,0.3583482913499998,2,G3,172.571,1.8304,42.518800000000006,11.0,3.0,1.0,5.0,1.0,58.0,1.0,0.0,0.0,1.0,69.16,67.72753576589115,3.232208870305491,300.6337992264624,High,True
B-337,"d-glycero-d-gulo-heptonic acid, .gamma.-lactone","InChI=1S/C7H12O7/c8-1-2(9)3(10)6-4(11)5(12)7(13)14-6/h2-6,8-12H,1H2",VIVCRCODGMFTFY-UHFFFAOYSA-N,OCC(O)C(O)C1OC(=O)C(O)C1O,0.3348,0.0276,2,G3,208.166,-3.6523,40.993000000000016,14.0,7.0,5.0,7.0,3.0,82.0,0.0,1.0,1.0,1.0,127.45000000000002,79.16930865121067,2.65785076373889,218.0838499786226,High,True
B-380,"2-ethyl-1,3-hexandiol","InChI=1S/C8H18O2/c1-3-5-8(10)7(4-2)6-9/h7-10H,3-6H2,1-2H3",RWLALWYNXFYRGW-UHFFFAOYSA-N,CCCC(O)C(CC)CO,-0.5418,0.4225999999999999,2,G3,146.23,1.1659,41.781600000000005,10.0,2.0,2.0,2.0,5.0,62.0,0.0,0.0,0.0,0.0,40.46,62.88231333299781,3.529930309226677,69.65784284662087,High,True
B-395,2-methyltetrahydrofuran,"InChI=1S/C5H10O/c1-5-3-2-4-6-5/h5H,2-4H2,1H3",JWUJQDFVADABEY-UHFFFAOYSA-N,CC1CCCO1,0.2069,0.0816627345992174,3,G5,86.134,1.1853,24.64799999999999,6.0,1.0,0.0,1.0,0.0,36.0,0.0,1.0,1.0,1.0,9.23,38.30673356139363,2.184105569636068,37.20310343869659,High,True
B-407,"pentanoic acid, 2-methyl-","InChI=1S/C6H12O2/c1-3-4-5(2)6(7)8/h5H,3-4H2,1-2H3,(H,7,8)",OVBFMEVBMNZIBR-UHFFFAOYSA-N,CCCC(C)C(O)=O,-0.889,0.0448483863499999,2,G3,116.15999999999998,1.5072,31.70779999999998,8.0,1.0,1.0,2.0,3.0,48.0,0.0,0.0,0.0,0.0,37.3,49.51971745205236,3.318087197283996,78.59772060569361,High,True
B-410,isobutyl isobutyrate,"InChI=1S/C8H16O2/c1-6(2)5-10-8(9)7(3)4/h6-7H,5H2,1-4H3",RXGUIWHIADMCFC-UHFFFAOYSA-N,CC(C)COC(=O)C(C)C,-2.1590000000000003,0.1219999999999998,2,G3,144.21399999999997,1.8416,40.635000000000005,10.0,2.0,0.0,2.0,3.0,60.0,0.0,0.0,0.0,0.0,26.3,62.568913158156434,3.4037533061532064,105.82521876648651,High,True
B-415,"1,2-benzenediol, 4-(1,1-dimethylethyl)-","InChI=1S/C10H14O2/c1-10(2,3)7-4-5-8(11)9(12)6-7/h4-6,11-12H,1-3H3",XESZUVZBAMCAEJ-UHFFFAOYSA-N,CC(C)(C)c1ccc(O)c(O)c1,-1.9197,0.1611330062,2,G3,166.21999999999997,2.395300000000001,48.47160000000004,12.0,2.0,2.0,2.0,0.0,66.0,1.0,0.0,0.0,1.0,40.46,72.47963908147543,3.138261335720987,284.3803204812324,High,True
B-422,alpha-methylbenzyl alcohol,"InChI=1S/C8H10O/c1-7(9)8-5-3-2-4-6-8/h2-7,9H,1H3",WAPNOHKVXSQRPX-UHFFFAOYSA-N,CC(O)c1ccccc1,-1.7969,0.4958520111361816,3,G5,122.16699999999996,1.7399,37.07580000000001,9.0,1.0,1.0,1.0,1.0,48.0,1.0,0.0,0.0,1.0,20.23,54.95552110048619,2.848234050597751,167.1823264341432,High,True
B-436,terephthalic acid,"InChI=1S/C8H6O4/c9-7(10)5-1-2-6(4-3-5)8(11)12/h1-4H,(H,9,10)(H,11,12)",KKEYFWRCBNTPAC-UHFFFAOYSA-N,OC(=O)c1ccc(cc1)C(O)=O,-4.0444,0.0727999999999999,2,G3,166.13199999999998,1.083,40.360600000000005,12.0,2.0,2.0,4.0,2.0,62.0,1.0,0.0,0.0,1.0,74.6,68.07279905276974,3.0061498337295465,279.3346746591642,Medium,False
B-445,4-ethylmorpholine,"InChI=1S/C6H13NO/c1-2-7-3-5-8-6-4-7/h2-6H2,1H3",HVCNXQOWACZAFN-UHFFFAOYSA-N,CCN1CCOCC1,0.9386,0.25925968155,2,G3,115.176,0.3385,32.932999999999986,8.0,2.0,0.0,2.0,1.0,48.0,0.0,1.0,1.0,1.0,12.47,50.43150934599361,2.125016255414672,59.548875021634686,High,True